<LesHouchesEvents version="3.0">
<header>
<!--
#*********************************************************************
#                                                                    *
#                        MadGraph5_aMC@NLO                           *
#                                                                    *
#                           Going Beyond                             *
#                                                                    *
#                   http://madgraph.hep.uiuc.edu                     *
#                   http://madgraph.phys.ucl.ac.be                   *
#                   http://amcatnlo.cern.ch                          *
#                                                                    *
#                     The MadGraph5_aMC@NLO team                     *
#                                                                    *
#....................................................................*
#                                                                    *
# This file contains all the information necessary to reproduce      *
# the events generated:                                              *
#                                                                    *
# 1. software version                                                *
# 2. proc_card          : code generation info including model       *
# 3. param_card         : model primary parameters in the LH format  *
# 4. run_card           : running parameters (collider and cuts)     *
# 5. pythia_card        : present only if pythia has been run        *
# 6. pgs_card           : present only if pgs has been run           *
# 7. delphes_cards      : present only if delphes has been run       *
#                                                                    *
#                                                                    *
#*********************************************************************
-->
<MGVersion>
2.5.5
</MGVersion>
<MG5ProcCard>
#************************************************************
#*                     MadGraph5_aMC@NLO                    *
#*                                                          *
#*                *                       *                 *
#*                  *        * *        *                   *
#*                    * * * * 5 * * * *                     *
#*                  *        * *        *                   *
#*                *                       *                 *
#*                                                          *
#*                                                          *
#*         VERSION 2.5.5                 2017-05-26         *
#*                                                          *
#*    The MadGraph5_aMC@NLO Development Team - Find us at   *
#*    https://server06.fynu.ucl.ac.be/projects/madgraph     *
#*                                                          *
#************************************************************
#*                                                          *
#*               Command File for MadGraph5_aMC@NLO         *
#*                                                          *
#*     run as ./bin/mg5_aMC  filename                       *
#*                                                          *
#************************************************************
set group_subprocesses Auto
set ignore_six_quark_processes False
set loop_optimized_output True
set loop_color_flows False
set gauge unitary
set complex_mass_scheme False
set max_npoint_for_channel 0
import model sm
define p = g u c d s u~ c~ d~ s~
define j = g u c d s u~ c~ d~ s~
define l+ = e+ mu+
define l- = e- mu-
define vl = ve vm vt
define vl~ = ve~ vm~ vt~
help
tutorial
generate p p > t t~
output MY_FIRST_MG5_RUN
</MG5ProcCard>
<MGProcCard>
#*********************************************************************
#                        MadGraph/MadEvent                           *
#                   http://madgraph.hep.uiuc.edu                     *
#                                                                    *
#                          proc_card.dat                             *
#*********************************************************************
#                                                                    *
#            This Files is generated by MADGRAPH 5                   *
#                                                                    *
# WARNING: This Files is generated for MADEVENT (compatibility issue)*
#          This files is NOT a valid MG4 proc_card.dat               *
#          Running this in MG4 will NEVER reproduce the result of MG5*
#                                                                    *
#*********************************************************************
#*********************************************************************
# Process(es) requested : mg2 input                                  *
#*********************************************************************
# Begin PROCESS # This is TAG. Do not modify this line
p p > t t~           #Process
# Be carefull the coupling are here in MG5 convention
          
end_coup           # End the couplings input

done               # this tells MG there are no more procs
# End PROCESS  # This is TAG. Do not modify this line
#*********************************************************************
# Model information                                                  *
#*********************************************************************
# Begin MODEL  # This is TAG. Do not modify this line
sm
# End   MODEL  # This is TAG. Do not modify this line
#*********************************************************************
# Start multiparticle definitions                                    *
#*********************************************************************
# Begin MULTIPARTICLES # This is TAG. Do not modify this line

# End  MULTIPARTICLES # This is TAG. Do not modify this line
</MGProcCard>
<MGRunCard>
#*********************************************************************
#                       MadGraph5_aMC@NLO                            *
#                                                                    *
#                     run_card.dat MadEvent                          *
#                                                                    *
#  This file is used to set the parameters of the run.               *
#                                                                    *
#  Some notation/conventions:                                        *
#                                                                    *
#   Lines starting with a '# ' are info or comments                  *
#                                                                    *
#   mind the format:   value    = variable     ! comment             *
#*********************************************************************
#
#*******************                                                 
# Running parameters
#*******************                                                 
#                                                                    
#*********************************************************************
# Tag name for the run (one word)                                    *
#*********************************************************************
  tag_1     = run_tag ! name of the run 
#*********************************************************************
# Number of events and rnd seed                                      *
# Warning: Do not generate more than 1M events in a single run       *
# If you want to run Pythia, avoid more than 50k events in a run.    *
#*********************************************************************
  10000 = nevents ! Number of unweighted events requested 
 21 = iseed   ! rnd seed (0=assigned automatically=default))
#*********************************************************************
# Collider type and energy                                           *
# lpp: 0=No PDF, 1=proton, -1=antiproton, 2=photon from proton,      *
#                                         3=photon from electron     *
#*********************************************************************
     1        = lpp1    ! beam 1 type 
     1        = lpp2    ! beam 2 type
     6500.0     = ebeam1  ! beam 1 total energy in GeV
     6500.0     = ebeam2  ! beam 2 total energy in GeV
#*********************************************************************
# Beam polarization from -100 (left-handed) to 100 (right-handed)    *
#*********************************************************************
     0.0     = polbeam1 ! beam polarization for beam 1
     0.0     = polbeam2 ! beam polarization for beam 2
#*********************************************************************
# PDF CHOICE: this automatically fixes also alpha_s and its evol.    *
#*********************************************************************
     nn23lo1    = pdlabel     ! PDF set                                     
     230000    = lhaid     ! if pdlabel=lhapdf, this is the lhapdf number
#*********************************************************************
# Renormalization and factorization scales                           *
#*********************************************************************
 False = fixed_ren_scale  ! if .true. use fixed ren scale
 False        = fixed_fac_scale  ! if .true. use fixed fac scale
 91.188  = scale            ! fixed ren scale
 91.188  = dsqrt_q2fact1    ! fixed fact scale for pdf1
 91.188  = dsqrt_q2fact2    ! fixed fact scale for pdf2
 -1 = dynamical_scale_choice ! Choose one of the preselected dynamical choices
 1.0  = scalefact        ! scale factor for event-by-event scales
#*********************************************************************
# Type and output format
#*********************************************************************
  False     = gridpack  !True = setting up the grid pack
  -1.0 = time_of_flight ! threshold (in mm) below which the invariant livetime is not written (-1 means not written)
  3.0 = lhe_version       ! Change the way clustering information pass to shower.        
  True = clusinfo         ! include clustering tag in output
  average =  event_norm       ! average/sum. Normalization of the weight in the LHEF

#*********************************************************************
# Matching parameter (MLM only)
#*********************************************************************
 0 = ickkw            ! 0 no matching, 1 MLM
 1.0 = alpsfact         ! scale factor for QCD emission vx
 False = chcluster        ! cluster only according to channel diag
 4 = asrwgtflavor     ! highest quark flavor for a_s reweight
 False  = auto_ptj_mjj  ! Automatic setting of ptj and mjj if xqcut >0
                                   ! (turn off for VBF and single top processes) 
 0.0   = xqcut   ! minimum kt jet measure between partons
#*********************************************************************
#
#*********************************************************************
# handling of the helicities:
#  0: sum over all helicities
#  1: importance sampling over helicities
#*********************************************************************
   0  = nhel          ! using helicities importance sampling or not.
#*********************************************************************
# Generation bias, check the wiki page below for more information:   *
#  'cp3.irmp.ucl.ac.be/projects/madgraph/wiki/LOEventGenerationBias' *
#*********************************************************************
 None = bias_module  ! Bias type of bias, [None, ptj_bias, -custom_folder-]
 {} = bias_parameters ! Specifies the parameters of the module.
#
#*******************************                                                 
# Parton level cuts definition *
#*******************************                                     
#                                                                    
#
#*********************************************************************
# BW cutoff (M+/-bwcutoff*Gamma) ! Define on/off-shell for "$" and decay  
#*********************************************************************
  15.0  = bwcutoff      ! (M+/-bwcutoff*Gamma)
#*********************************************************************
# Apply pt/E/eta/dr/mij/kt_durham cuts on decay products or not
# (note that etmiss/ptll/ptheavy/ht/sorted cuts always apply)
#*********************************************************************
   False  = cut_decays    ! Cut decay products 
#*********************************************************************
# Standard Cuts                                                      *
#*********************************************************************
# Minimum and maximum pt's (for max, -1 means no cut)                *
#*********************************************************************
 20.0  = ptj       ! minimum pt for the jets 
 0.0  = ptb       ! minimum pt for the b 
 10.0  = pta       ! minimum pt for the photons 
 10.0  = ptl       ! minimum pt for the charged leptons 
 0.0  = misset    ! minimum missing Et (sum of neutrino's momenta)
 0.0  = ptheavy   ! minimum pt for one heavy final state
 -1.0  = ptjmax    ! maximum pt for the jets
 -1.0  = ptbmax    ! maximum pt for the b
 -1.0  = ptamax    ! maximum pt for the photons
 -1.0  = ptlmax    ! maximum pt for the charged leptons
 -1.0  = missetmax ! maximum missing Et (sum of neutrino's momenta)
#*********************************************************************
# Minimum and maximum E's (in the center of mass frame)              *
#*********************************************************************
  0.0  = ej     ! minimum E for the jets 
  0.0  = eb     ! minimum E for the b 
  0.0  = ea     ! minimum E for the photons 
  0.0  = el     ! minimum E for the charged leptons 
  -1.0   = ejmax ! maximum E for the jets
 -1.0   = ebmax ! maximum E for the b
 -1.0   = eamax ! maximum E for the photons
 -1.0   = elmax ! maximum E for the charged leptons
#*********************************************************************
# Maximum and minimum absolute rapidity (for max, -1 means no cut)   *
#*********************************************************************
  5.0 = etaj    ! max rap for the jets 
  -1.0  = etab    ! max rap for the b
 2.5  = etaa    ! max rap for the photons 
 2.5  = etal    ! max rap for the charged leptons 
 0.0  = etajmin ! min rap for the jets
 0.0  = etabmin ! min rap for the b
 0.0  = etaamin ! min rap for the photons
 0.0  = etalmin ! main rap for the charged leptons
#*********************************************************************
# Minimum and maximum DeltaR distance                                *
#*********************************************************************
 0.4 = drjj    ! min distance between jets 
 0.0   = drbb    ! min distance between b's 
 0.4 = drll    ! min distance between leptons 
 0.4 = draa    ! min distance between gammas 
 0.0   = drbj    ! min distance between b and jet 
 0.4 = draj    ! min distance between gamma and jet 
 0.4 = drjl    ! min distance between jet and lepton 
 0.0   = drab    ! min distance between gamma and b 
 0.0   = drbl    ! min distance between b and lepton 
 0.4 = dral    ! min distance between gamma and lepton 
 -1.0  = drjjmax ! max distance between jets
 -1.0  = drbbmax ! max distance between b's
 -1.0  = drllmax ! max distance between leptons
 -1.0  = draamax ! max distance between gammas
 -1.0  = drbjmax ! max distance between b and jet
 -1.0  = drajmax ! max distance between gamma and jet
 -1.0  = drjlmax ! max distance between jet and lepton
 -1.0  = drabmax ! max distance between gamma and b
 -1.0  = drblmax ! max distance between b and lepton
 -1.0  = dralmax ! maxdistance between gamma and lepton
#*********************************************************************
# Minimum and maximum invariant mass for pairs                       *
# WARNING: for four lepton final state mmll cut require to have      *
#          different lepton masses for each flavor!                  *           
#*********************************************************************
 0.0   = mmjj    ! min invariant mass of a jet pair 
 0.0   = mmbb    ! min invariant mass of a b pair 
 0.0   = mmaa    ! min invariant mass of gamma gamma pair
 0.0   = mmll    ! min invariant mass of l+l- (same flavour) lepton pair
 -1.0  = mmjjmax ! max invariant mass of a jet pair
 -1.0  = mmbbmax ! max invariant mass of a b pair
 -1.0  = mmaamax ! max invariant mass of gamma gamma pair
 -1.0  = mmllmax ! max invariant mass of l+l- (same flavour) lepton pair
#*********************************************************************
# Minimum and maximum invariant mass for all letpons                 *
#*********************************************************************
 0.0   = mmnl    ! min invariant mass for all letpons (l+- and vl) 
 -1.0  = mmnlmax ! max invariant mass for all letpons (l+- and vl) 
#*********************************************************************
# Minimum and maximum pt for 4-momenta sum of leptons                *
#*********************************************************************
 0.0   = ptllmin  ! Minimum pt for 4-momenta sum of leptons(l and vl)
 -1.0  = ptllmax  ! Maximum pt for 4-momenta sum of leptons(l and vl)
#*********************************************************************
# Inclusive cuts                                                     *
#*********************************************************************
 0.0  = xptj ! minimum pt for at least one jet  
 0.0  = xptb ! minimum pt for at least one b 
 0.0  = xpta ! minimum pt for at least one photon 
 0.0  = xptl ! minimum pt for at least one charged lepton 
#*********************************************************************
# Control the pt's of the jets sorted by pt                          *
#*********************************************************************
 0.0   = ptj1min ! minimum pt for the leading jet in pt
 0.0   = ptj2min ! minimum pt for the second jet in pt
 0.0   = ptj3min ! minimum pt for the third jet in pt
 0.0   = ptj4min ! minimum pt for the fourth jet in pt
 -1.0  = ptj1max ! maximum pt for the leading jet in pt 
 -1.0  = ptj2max ! maximum pt for the second jet in pt
 -1.0  = ptj3max ! maximum pt for the third jet in pt
 -1.0  = ptj4max ! maximum pt for the fourth jet in pt
 0   = cutuse  ! reject event if fails any (0) / all (1) jet pt cuts
#*********************************************************************
# Control the pt's of leptons sorted by pt                           *
#*********************************************************************
 0.0   = ptl1min ! minimum pt for the leading lepton in pt
 0.0   = ptl2min ! minimum pt for the second lepton in pt
 0.0   = ptl3min ! minimum pt for the third lepton in pt
 0.0   = ptl4min ! minimum pt for the fourth lepton in pt
 -1.0  = ptl1max ! maximum pt for the leading lepton in pt 
 -1.0  = ptl2max ! maximum pt for the second lepton in pt
 -1.0  = ptl3max ! maximum pt for the third lepton in pt
 -1.0  = ptl4max ! maximum pt for the fourth lepton in pt
#*********************************************************************
# Control the Ht(k)=Sum of k leading jets                            *
#*********************************************************************
 0.0   = htjmin ! minimum jet HT=Sum(jet pt)
 -1.0  = htjmax ! maximum jet HT=Sum(jet pt)
 0.0   = ihtmin  !inclusive Ht for all partons (including b)
 -1.0  = ihtmax  !inclusive Ht for all partons (including b)
 0.0   = ht2min ! minimum Ht for the two leading jets
 0.0   = ht3min ! minimum Ht for the three leading jets
 0.0   = ht4min ! minimum Ht for the four leading jets
 -1.0  = ht2max ! maximum Ht for the two leading jets
 -1.0  = ht3max ! maximum Ht for the three leading jets
 -1.0  = ht4max ! maximum Ht for the four leading jets
#***********************************************************************
# Photon-isolation cuts, according to hep-ph/9801442                   *
# When ptgmin=0, all the other parameters are ignored                  *
# When ptgmin>0, pta and draj are not going to be used                 *
#***********************************************************************
 0.0 = ptgmin ! Min photon transverse momentum
 0.4 = R0gamma ! Radius of isolation code
 1.0 = xn ! n parameter of eq.(3.4) in hep-ph/9801442
 1.0 = epsgamma ! epsilon_gamma parameter of eq.(3.4) in hep-ph/9801442
 True = isoEM ! isolate photons from EM energy (photons and leptons)
#*********************************************************************
# WBF cuts                                                           *
#*********************************************************************
 0.0   = xetamin ! minimum rapidity for two jets in the WBF case  
 0.0   = deltaeta ! minimum rapidity for two jets in the WBF case 
#***********************************************************************
# Turn on either the ktdurham or ptlund cut to activate                *
# CKKW(L) merging with Pythia8 [arXiv:1410.3012, arXiv:1109.4829]      *
#***********************************************************************
 -1.0  =  ktdurham        
 0.4   =  dparameter
 -1.0  =  ptlund
 1, 2, 3, 4, 5, 6, 21  =  pdgs_for_merging_cut ! PDGs for two cuts above   
#*********************************************************************
# maximal pdg code for quark to be considered as a light jet         *
# (otherwise b cuts are applied)                                     *
#*********************************************************************
 4 = maxjetflavor    ! Maximum jet pdg code
#*********************************************************************
#
#*********************************************************************
# Store info for systematics studies                                 *
# WARNING: Do not use for interference type of computation           *
#*********************************************************************
   True  = use_syst      ! Enable systematics studies
#
#**************************************
# Parameter of the systematics study
#  will be used by SysCalc (if installed)
#**************************************                                  
#
0.5 1 2 = sys_scalefact  # factorization/renormalization scale factor
None = sys_alpsfact  # \alpha_s emission scale factors
auto = sys_matchscale # variation of merging scale
# PDF sets and number of members (0 or none for all members).
NNPDF23_lo_as_0130_qed = sys_pdf # list of pdf sets
# MSTW2008nlo68cl.LHgrid 1  = sys_pdf
#
</MGRunCard>
<slha>
######################################################################
## PARAM_CARD AUTOMATICALY GENERATED BY MG5 FOLLOWING UFO MODEL   ####
######################################################################
##                                                                  ##
##  Width set on Auto will be computed following the information    ##
##        present in the decay.py files of the model.               ##
##        See  arXiv:1402.1178 for more details.                    ##
##                                                                  ##
######################################################################

###################################
## INFORMATION FOR MASS
###################################
Block mass 
    5 4.700000e+00 # MB 
    6 1.730000e+02 # MT 
   15 1.777000e+00 # MTA 
   23 9.118800e+01 # MZ 
   25 1.250000e+02 # MH 
## Dependent parameters, given by model restrictions.
## Those values should be edited following the 
## analytical expression. MG5 ignores those values 
## but they are important for interfacing the output of MG5
## to external program such as Pythia.
  1 0.000000 # d : 0.0 
  2 0.000000 # u : 0.0 
  3 0.000000 # s : 0.0 
  4 0.000000 # c : 0.0 
  11 0.000000 # e- : 0.0 
  12 0.000000 # ve : 0.0 
  13 0.000000 # mu- : 0.0 
  14 0.000000 # vm : 0.0 
  16 0.000000 # vt : 0.0 
  21 0.000000 # g : 0.0 
  22 0.000000 # a : 0.0 
  24 80.419002 # w+ : cmath.sqrt(MZ__exp__2/2. + cmath.sqrt(MZ__exp__4/4. - (aEW*cmath.pi*MZ__exp__2)/(Gf*sqrt__2))) 

###################################
## INFORMATION FOR SMINPUTS
###################################
Block sminputs 
    1 1.325070e+02 # aEWM1 
    2 1.166390e-05 # Gf 
    3 1.180000e-01 # aS 

###################################
## INFORMATION FOR YUKAWA
###################################
Block yukawa 
    5 4.700000e+00 # ymb 
    6 1.730000e+02 # ymt 
   15 1.777000e+00 # ymtau 

###################################
## INFORMATION FOR DECAY
###################################
DECAY   6 1.491500e+00 # WT 
DECAY  23 2.441404e+00 # WZ 
DECAY  24 2.047600e+00 # WW 
DECAY  25 6.382339e-03 # WH 
## Dependent parameters, given by model restrictions.
## Those values should be edited following the 
## analytical expression. MG5 ignores those values 
## but they are important for interfacing the output of MG5
## to external program such as Pythia.
DECAY  1 0.000000 # d : 0.0 
DECAY  2 0.000000 # u : 0.0 
DECAY  3 0.000000 # s : 0.0 
DECAY  4 0.000000 # c : 0.0 
DECAY  5 0.000000 # b : 0.0 
DECAY  11 0.000000 # e- : 0.0 
DECAY  12 0.000000 # ve : 0.0 
DECAY  13 0.000000 # mu- : 0.0 
DECAY  14 0.000000 # vm : 0.0 
DECAY  15 0.000000 # ta- : 0.0 
DECAY  16 0.000000 # vt : 0.0 
DECAY  21 0.000000 # g : 0.0 
DECAY  22 0.000000 # a : 0.0
</slha>
<MGGenerationInfo>
#  Number of Events        :       10000
#  Integrated weight (pb)  :       505.582
</MGGenerationInfo>
</header>
<init>
2212 2212 6.500000e+03 6.500000e+03 0 0 247000 247000 -4 1
5.055820e+02 1.046158e+00 5.055820e+02 1
<generator name='MadGraph5_aMC@NLO' version='2.5.5'>please cite 1405.0301 </generator>
</init>
<event>
 4      1 +5.0558200e+02 2.08121300e+02 7.54677100e-03 1.14306200e-01
       21 -1    0    0  503  502 +0.0000000000e+00 +0.0000000000e+00 +4.6699672078e+02 4.6699672078e+02 0.0000000000e+00 0.0000e+00 -1.0000e+00
       21 -1    0    0  501  503 -0.0000000000e+00 -0.0000000000e+00 -1.7306846547e+02 1.7306846547e+02 0.0000000000e+00 0.0000e+00 -1.0000e+00
        6  1    1    2  501    0 -1.0549343684e+02 +4.7503664050e+01 +3.6498091942e+02 4.2014941967e+02 1.7300000000e+02 0.0000e+00 -1.0000e+00
       -6  1    1    2    0  502 +1.0549343684e+02 -4.7503664050e+01 -7.1052664100e+01 2.1991576658e+02 1.7300000000e+02 0.0000e+00 -1.0000e+00
<mgrwt>
<rscale>  2 0.20812127E+03</rscale>
<asrwt>0</asrwt>
<pdfrwt beam="1">  1       21 0.71845649E-01 0.20812127E+03</pdfrwt>
<pdfrwt beam="2">  1       21 0.26625918E-01 0.20812127E+03</pdfrwt>
<totfact> 0.23273598E+04</totfact>
</mgrwt>
</event>
<event>
 4      1 +5.0558200e+02 1.85519900e+02 7.54677100e-03 1.16256500e-01
       21 -1    0    0  501  502 +0.0000000000e+00 +0.0000000000e+00 +4.9048800891e+01 4.9048800891e+01 0.0000000000e+00 0.0000e+00 -1.0000e+00
       21 -1    0    0  502  503 -0.0000000000e+00 -0.0000000000e+00 -1.1208723087e+03 1.1208723087e+03 0.0000000000e+00 0.0000e+00 -1.0000e+00
        6  1    1    2  501    0 +3.9565643453e+01 -5.4066402974e+01 -1.7819108156e+02 2.5723467422e+02 1.7300000000e+02 0.0000e+00 -1.0000e+00
       -6  1    1    2    0  503 -3.9565643453e+01 +5.4066402974e+01 -8.9363242628e+02 9.1268643541e+02 1.7300000000e+02 0.0000e+00 -1.0000e+00
<mgrwt>
<rscale>  2 0.18551985E+03</rscale>
<asrwt>0</asrwt>
<pdfrwt beam="1">  1       21 0.75459698E-02 0.18551985E+03</pdfrwt>
<pdfrwt beam="2">  1       21 0.17244188E+00 0.18551985E+03</pdfrwt>
<totfact> 0.27379815E+04</totfact>
</mgrwt>
</event>
<event>
 4      1 +5.0558200e+02 2.52232400e+02 7.54677100e-03 1.11190200e-01
       21 -1    0    0  503  502 +0.0000000000e+00 +0.0000000000e+00 +7.7572375650e+01 7.7572375650e+01 0.0000000000e+00 0.0000e+00 1.0000e+00
       21 -1    0    0  501  503 -0.0000000000e+00 -0.0000000000e+00 -1.0115315401e+03 1.0115315401e+03 0.0000000000e+00 0.0000e+00 -1.0000e+00
        6  1    1    2  501    0 -1.2352036540e+02 +1.3577513904e+02 -7.0384241759e+02 7.4767326945e+02 1.7300000000e+02 0.0000e+00 -1.0000e+00
       -6  1    1    2    0  502 +1.2352036540e+02 -1.3577513904e+02 -2.3011674687e+02 3.4143064631e+02 1.7300000000e+02 0.0000e+00 1.0000e+00
<mgrwt>
<rscale>  2 0.25223237E+03</rscale>
<asrwt>0</asrwt>
<pdfrwt beam="1">  1       21 0.11934211E-01 0.25223237E+03</pdfrwt>
<pdfrwt beam="2">  1       21 0.15562024E+00 0.25223237E+03</pdfrwt>
<totfact> 0.15467223E+04</totfact>
</mgrwt>
</event>
<event>
 4      1 +5.0558200e+02 1.84043200e+02 7.54677100e-03 1.16394600e-01
       21 -1    0    0  503  502 +0.0000000000e+00 +0.0000000000e+00 +4.4607257145e+01 4.4607257145e+01 0.0000000000e+00 0.0000e+00 1.0000e+00
       21 -1    0    0  501  503 -0.0000000000e+00 -0.0000000000e+00 -7.8890131786e+02 7.8890131786e+02 0.0000000000e+00 0.0000e+00 1.0000e+00
        6  1    1    2  501    0 +2.2775093235e+01 +5.8516551432e+01 -2.9146798312e+02 3.4471071473e+02 1.7300000000e+02 0.0000e+00 1.0000e+00
       -6  1    1    2    0  502 -2.2775093235e+01 -5.8516551432e+01 -4.5282607760e+02 4.8879786028e+02 1.7300000000e+02 0.0000e+00 1.0000e+00
<mgrwt>
<rscale>  2 0.18404318E+03</rscale>
<asrwt>0</asrwt>
<pdfrwt beam="1">  1       21 0.68626546E-02 0.18404318E+03</pdfrwt>
<pdfrwt beam="2">  1       21 0.12136944E+00 0.18404318E+03</pdfrwt>
<totfact> 0.80684254E+04</totfact>
</mgrwt>
</event>
<event>
 4      1 +5.0558200e+02 1.83528100e+02 7.54677100e-03 1.16443200e-01
       21 -1    0    0  503  502 +0.0000000000e+00 +0.0000000000e+00 +8.9671748727e+02 8.9671748727e+02 0.0000000000e+00 0.0000e+00 1.0000e+00
       21 -1    0    0  501  503 -0.0000000000e+00 -0.0000000000e+00 -9.5205353882e+01 9.5205353882e+01 0.0000000000e+00 0.0000e+00 1.0000e+00
        6  1    1    2  501    0 -6.1000658754e+01 +5.6987184202e+00 +1.4841114572e+01 1.8412716921e+02 1.7300000000e+02 0.0000e+00 1.0000e+00
       -6  1    1    2    0  502 +6.1000658754e+01 -5.6987184202e+00 +7.8667101882e+02 8.0779567194e+02 1.7300000000e+02 0.0000e+00 1.0000e+00
<mgrwt>
<rscale>  2 0.18352808E+03</rscale>
<asrwt>0</asrwt>
<pdfrwt beam="1">  1       21 0.13795653E+00 0.18352808E+03</pdfrwt>
<pdfrwt beam="2">  1       21 0.14646978E-01 0.18352808E+03</pdfrwt>
<totfact> 0.15321426E+04</totfact>
</mgrwt>
</event>
<event>
 4      1 +5.0558200e+02 1.87374800e+02 7.54677100e-03 1.16085100e-01
       21 -1    0    0  503  502 +0.0000000000e+00 +0.0000000000e+00 +8.3814931859e+01 8.3814931859e+01 0.0000000000e+00 0.0000e+00 1.0000e+00
       21 -1    0    0  501  503 -0.0000000000e+00 -0.0000000000e+00 -4.3945170301e+02 4.3945170301e+02 0.0000000000e+00 0.0000e+00 1.0000e+00
        6  1    1    2  501    0 +3.1512622024e+01 -6.4709108205e+01 -1.2122609370e+02 2.2317051737e+02 1.7300000000e+02 0.0000e+00 1.0000e+00
       -6  1    1    2    0  502 -3.1512622024e+01 +6.4709108205e+01 -2.3441067745e+02 3.0009611750e+02 1.7300000000e+02 0.0000e+00 1.0000e+00
<mgrwt>
<rscale>  2 0.18737480E+03</rscale>
<asrwt>0</asrwt>
<pdfrwt beam="1">  1       21 0.12894605E-01 0.18737480E+03</pdfrwt>
<pdfrwt beam="2">  1       21 0.67607953E-01 0.18737480E+03</pdfrwt>
<totfact> 0.10337424E+05</totfact>
</mgrwt>
</event>
<event>
 4      1 +5.0558200e+02 2.72663700e+02 7.54677100e-03 1.09976500e-01
       21 -1    0    0  503  502 +0.0000000000e+00 +0.0000000000e+00 +3.1240109048e+02 3.1240109048e+02 0.0000000000e+00 0.0000e+00 1.0000e+00
       21 -1    0    0  501  503 -0.0000000000e+00 -0.0000000000e+00 -1.5499227531e+03 1.5499227531e+03 0.0000000000e+00 0.0000e+00 -1.0000e+00
        6  1    1    2  501    0 -1.3962016795e+02 -1.5786929100e+02 -1.4754582698e+03 1.5004408054e+03 1.7300000000e+02 0.0000e+00 -1.0000e+00
       -6  1    1    2    0  502 +1.3962016795e+02 +1.5786929100e+02 +2.3793660719e+02 3.6188303826e+02 1.7300000000e+02 0.0000e+00 1.0000e+00
<mgrwt>
<rscale>  2 0.27266372E+03</rscale>
<asrwt>0</asrwt>
<pdfrwt beam="1">  1       21 0.48061705E-01 0.27266372E+03</pdfrwt>
<pdfrwt beam="2">  1       21 0.23844966E+00 0.27266372E+03</pdfrwt>
<totfact> 0.29376683E+02</totfact>
</mgrwt>
</event>
<event>
 4      1 +5.0558200e+02 2.56973800e+02 7.54677100e-03 1.10897500e-01
       21 -1    0    0  501  502 +0.0000000000e+00 +0.0000000000e+00 +6.2407148578e+02 6.2407148578e+02 0.0000000000e+00 0.0000e+00 1.0000e+00
       21 -1    0    0  502  503 -0.0000000000e+00 -0.0000000000e+00 -1.1655816518e+02 1.1655816518e+02 0.0000000000e+00 0.0000e+00 -1.0000e+00
        6  1    1    2  501    0 -1.6995945052e+02 -8.4972391641e+01 +3.6618747952e+02 4.4735756652e+02 1.7300000000e+02 0.0000e+00 1.0000e+00
       -6  1    1    2    0  503 +1.6995945052e+02 +8.4972391641e+01 +1.4132584108e+02 2.9327208445e+02 1.7300000000e+02 0.0000e+00 -1.0000e+00
<mgrwt>
<rscale>  2 0.25697378E+03</rscale>
<asrwt>0</asrwt>
<pdfrwt beam="1">  1       21 0.96010996E-01 0.25697378E+03</pdfrwt>
<pdfrwt beam="2">  1       21 0.17932026E-01 0.25697378E+03</pdfrwt>
<totfact> 0.24690840E+04</totfact>
</mgrwt>
</event>
<event>
 4      1 +5.0558200e+02 2.26186000e+02 7.54677100e-03 1.12935300e-01
       21 -1    0    0  503  502 +0.0000000000e+00 +0.0000000000e+00 +3.9720849853e+02 3.9720849853e+02 0.0000000000e+00 0.0000e+00 1.0000e+00
       21 -1    0    0  501  503 -0.0000000000e+00 -0.0000000000e+00 -1.4879308274e+02 1.4879308274e+02 0.0000000000e+00 0.0000e+00 -1.0000e+00
        6  1    1    2  501    0 +1.4570205071e+02 +1.4271537360e+00 +2.4133664836e+01 2.2746990598e+02 1.7300000000e+02 0.0000e+00 -1.0000e+00
       -6  1    1    2    0  502 -1.4570205071e+02 -1.4271537360e+00 +2.2428175096e+02 3.1853167529e+02 1.7300000000e+02 0.0000e+00 1.0000e+00
<mgrwt>
<rscale>  2 0.22618604E+03</rscale>
<asrwt>0</asrwt>
<pdfrwt beam="1">  1       21 0.61108999E-01 0.22618604E+03</pdfrwt>
<pdfrwt beam="2">  1       21 0.22891244E-01 0.22618604E+03</pdfrwt>
<totfact> 0.43890812E+04</totfact>
</mgrwt>
</event>
<event>
 4      1 +5.0558200e+02 1.87144400e+02 7.54677100e-03 1.16106200e-01
       21 -1    0    0  503  502 +0.0000000000e+00 +0.0000000000e+00 +6.8158939054e+01 6.8158939054e+01 0.0000000000e+00 0.0000e+00 1.0000e+00
       21 -1    0    0  501  503 -0.0000000000e+00 -0.0000000000e+00 -8.2727422304e+02 8.2727422304e+02 0.0000000000e+00 0.0000e+00 1.0000e+00
        6  1    1    2  501    0 +6.6190109695e+01 -2.6699834612e+01 -6.5513870908e+02 6.8134406868e+02 1.7300000000e+02 0.0000e+00 1.0000e+00
       -6  1    1    2    0  502 -6.6190109695e+01 +2.6699834612e+01 -1.0397657490e+02 2.1408909341e+02 1.7300000000e+02 0.0000e+00 1.0000e+00
<mgrwt>
<rscale>  2 0.18714436E+03</rscale>
<asrwt>0</asrwt>
<pdfrwt beam="1">  1       21 0.10485990E-01 0.18714436E+03</pdfrwt>
<pdfrwt beam="2">  1       21 0.12727296E+00 0.18714436E+03</pdfrwt>
<totfact> 0.34125837E+04</totfact>
</mgrwt>
</event>
<event>
 4      1 +5.0558200e+02 2.38400300e+02 7.54677100e-03 1.12086300e-01
       21 -1    0    0  501  502 +0.0000000000e+00 +0.0000000000e+00 +9.7157100076e+01 9.7157100076e+01 0.0000000000e+00 0.0000e+00 1.0000e+00
       21 -1    0    0  502  503 -0.0000000000e+00 -0.0000000000e+00 -6.7166930126e+02 6.7166930126e+02 0.0000000000e+00 0.0000e+00 -1.0000e+00
        6  1    1    2  501    0 +1.5964350954e+02 +3.7678279581e+01 -1.4915093165e+02 2.8121291453e+02 1.7300000000e+02 0.0000e+00 -1.0000e+00
       -6  1    1    2    0  503 -1.5964350954e+02 -3.7678279581e+01 -4.2536126954e+02 4.8761348681e+02 1.7300000000e+02 0.0000e+00 -1.0000e+00
<mgrwt>
<rscale>  2 0.23840030E+03</rscale>
<asrwt>0</asrwt>
<pdfrwt beam="1">  1       21 0.14947246E-01 0.23840030E+03</pdfrwt>
<pdfrwt beam="2">  1       21 0.10333374E+00 0.23840030E+03</pdfrwt>
<totfact> 0.29241471E+04</totfact>
</mgrwt>
</event>
<event>
 4      1 +5.0558200e+02 2.12474200e+02 7.54677100e-03 1.13962200e-01
       21 -1    0    0  503  502 +0.0000000000e+00 +0.0000000000e+00 +2.0506061272e+02 2.0506061272e+02 0.0000000000e+00 0.0000e+00 1.0000e+00
       21 -1    0    0  501  503 -0.0000000000e+00 -0.0000000000e+00 -2.7242273768e+02 2.7242273768e+02 0.0000000000e+00 0.0000e+00 -1.0000e+00
        6  1    1    2  501    0 +5.6734696462e+01 +1.0953284354e+02 +7.0892129515e+01 2.2398875780e+02 1.7300000000e+02 0.0000e+00 1.0000e+00
       -6  1    1    2    0  502 -5.6734696462e+01 -1.0953284354e+02 -1.3825425448e+02 2.5349459260e+02 1.7300000000e+02 0.0000e+00 1.0000e+00
<mgrwt>
<rscale>  2 0.21247416E+03</rscale>
<asrwt>0</asrwt>
<pdfrwt beam="1">  1       21 0.31547787E-01 0.21247416E+03</pdfrwt>
<pdfrwt beam="2">  1       21 0.41911190E-01 0.21247416E+03</pdfrwt>
<totfact> 0.52429201E+04</totfact>
</mgrwt>
</event>
<event>
 4      1 +5.0558200e+02 2.10237000e+02 7.54677100e-03 1.14137800e-01
       21 -1    0    0  503  502 +0.0000000000e+00 +0.0000000000e+00 +2.1170104590e+02 2.1170104590e+02 0.0000000000e+00 0.0000e+00 -1.0000e+00
       21 -1    0    0  501  503 -0.0000000000e+00 -0.0000000000e+00 -3.3898491764e+02 3.3898491764e+02 0.0000000000e+00 0.0000e+00 1.0000e+00
        6  1    1    2  501    0 -7.3845145623e+01 -9.3901459817e+01 -2.3428649008e+02 3.1478524286e+02 1.7300000000e+02 0.0000e+00 1.0000e+00
       -6  1    1    2    0  502 +7.3845145623e+01 +9.3901459817e+01 +1.0700261834e+02 2.3590072068e+02 1.7300000000e+02 0.0000e+00 -1.0000e+00
<mgrwt>
<rscale>  2 0.21023698E+03</rscale>
<asrwt>0</asrwt>
<pdfrwt beam="1">  1       21 0.32569392E-01 0.21023698E+03</pdfrwt>
<pdfrwt beam="2">  1       21 0.52151525E-01 0.21023698E+03</pdfrwt>
<totfact> 0.31353962E+04</totfact>
</mgrwt>
</event>
<event>
 4      1 +5.0558200e+02 1.83384000e+02 7.54677100e-03 1.16456800e-01
       21 -1    0    0  503  502 +0.0000000000e+00 +0.0000000000e+00 +7.5857783958e+01 7.5857783958e+01 0.0000000000e+00 0.0000e+00 -1.0000e+00
       21 -1    0    0  501  503 -0.0000000000e+00 -0.0000000000e+00 -5.0809688547e+02 5.0809688547e+02 0.0000000000e+00 0.0000e+00 1.0000e+00
        6  1    1    2  501    0 -3.4771700552e+01 -4.9916100109e+01 -1.1187159533e+02 2.1481373804e+02 1.7300000000e+02 0.0000e+00 -1.0000e+00
       -6  1    1    2    0  502 +3.4771700552e+01 +4.9916100109e+01 -3.2036750618e+02 3.6914093139e+02 1.7300000000e+02 0.0000e+00 1.0000e+00
<mgrwt>
<rscale>  2 0.18338399E+03</rscale>
<asrwt>0</asrwt>
<pdfrwt beam="1">  1       21 0.11670428E-01 0.18338399E+03</pdfrwt>
<pdfrwt beam="2">  1       21 0.78168753E-01 0.18338399E+03</pdfrwt>
<totfact> 0.89711003E+04</totfact>
</mgrwt>
</event>
<event>
 4      1 +5.0558200e+02 1.79208500e+02 7.54677100e-03 1.16857100e-01
       21 -1    0    0  503  502 +0.0000000000e+00 +0.0000000000e+00 +4.7993219569e+01 4.7993219569e+01 0.0000000000e+00 0.0000e+00 1.0000e+00
       21 -1    0    0  501  503 -0.0000000000e+00 -0.0000000000e+00 -1.0515192009e+03 1.0515192009e+03 0.0000000000e+00 0.0000e+00 -1.0000e+00
        6  1    1    2  501    0 +2.2920734468e+01 +4.0759295379e+01 -8.3326865495e+02 8.5232173007e+02 1.7300000000e+02 0.0000e+00 -1.0000e+00
       -6  1    1    2    0  502 -2.2920734468e+01 -4.0759295379e+01 -1.7025732635e+02 2.4719069037e+02 1.7300000000e+02 0.0000e+00 1.0000e+00
<mgrwt>
<rscale>  2 0.17920848E+03</rscale>
<asrwt>0</asrwt>
<pdfrwt beam="1">  1       21 0.73835717E-02 0.17920848E+03</pdfrwt>
<pdfrwt beam="2">  1       21 0.16177220E+00 0.17920848E+03</pdfrwt>
<totfact> 0.33985890E+04</totfact>
</mgrwt>
</event>
<event>
 4      1 +5.0558200e+02 1.95486900e+02 7.54677100e-03 1.15360400e-01
       21 -1    0    0  503  502 +0.0000000000e+00 +0.0000000000e+00 +1.9970524671e+02 1.9970524671e+02 0.0000000000e+00 0.0000e+00 1.0000e+00
       21 -1    0    0  501  503 -0.0000000000e+00 -0.0000000000e+00 -1.9252852105e+02 1.9252852105e+02 0.0000000000e+00 0.0000e+00 1.0000e+00
        6  1    1    2  501    0 +8.5327801585e+01 +3.1706536200e+01 +1.8882019606e+01 1.9639671287e+02 1.7300000000e+02 0.0000e+00 1.0000e+00
       -6  1    1    2    0  502 -8.5327801585e+01 -3.1706536200e+01 -1.1705293940e+01 1.9583705489e+02 1.7300000000e+02 0.0000e+00 1.0000e+00
<mgrwt>
<rscale>  2 0.19548693E+03</rscale>
<asrwt>0</asrwt>
<pdfrwt beam="1">  1       21 0.30723884E-01 0.19548693E+03</pdfrwt>
<pdfrwt beam="2">  1       21 0.29619772E-01 0.19548693E+03</pdfrwt>
<totfact> 0.11100029E+05</totfact>
</mgrwt>
</event>
<event>
 4      1 +5.0558200e+02 2.01058700e+02 7.54677100e-03 1.14884900e-01
       21 -1    0    0  501  502 +0.0000000000e+00 +0.0000000000e+00 +2.9455250904e+02 2.9455250904e+02 0.0000000000e+00 0.0000e+00 1.0000e+00
       21 -1    0    0  502  503 -0.0000000000e+00 -0.0000000000e+00 -1.4705812551e+02 1.4705812551e+02 0.0000000000e+00 0.0000e+00 1.0000e+00
        6  1    1    2  501    0 -9.2202014629e+01 +4.4658380467e+01 +1.3079836485e+02 2.3985994808e+02 1.7300000000e+02 0.0000e+00 1.0000e+00
       -6  1    1    2    0  503 +9.2202014629e+01 -4.4658380467e+01 +1.6696018676e+01 2.0175068646e+02 1.7300000000e+02 0.0000e+00 1.0000e+00
<mgrwt>
<rscale>  2 0.20105865E+03</rscale>
<asrwt>0</asrwt>
<pdfrwt beam="1">  1       21 0.45315771E-01 0.20105865E+03</pdfrwt>
<pdfrwt beam="2">  1       21 0.22624327E-01 0.20105865E+03</pdfrwt>
<totfact> 0.85223232E+04</totfact>
</mgrwt>
</event>
<event>
 4      1 +5.0558200e+02 1.89966000e+02 7.54677100e-03 1.15849200e-01
       -2 -1    0    0    0  501 -0.0000000000e+00 +0.0000000000e+00 +4.8899241814e+01 4.8899241814e+01 0.0000000000e+00 0.0000e+00 -1.0000e+00
        2 -1    0    0  502    0 +0.0000000000e+00 -0.0000000000e+00 -8.0037421837e+02 8.0037421837e+02 0.0000000000e+00 0.0000e+00 1.0000e+00
        6  1    1    2  502    0 +4.3405701122e+01 +6.5375954707e+01 -2.5718404967e+02 3.1973536831e+02 1.7300000000e+02 0.0000e+00 -1.0000e+00
       -6  1    1    2    0  501 -4.3405701122e+01 -6.5375954707e+01 -4.9429092688e+02 5.2953809187e+02 1.7300000000e+02 0.0000e+00 1.0000e+00
<mgrwt>
<rscale>  2 0.18996597E+03</rscale>
<asrwt>0</asrwt>
<pdfrwt beam="1">  1        2 0.12313449E+00 0.18996597E+03</pdfrwt>
<pdfrwt beam="2">  1       -2 0.75229608E-02 0.18996597E+03</pdfrwt>
<totfact> 0.36475409E+03</totfact>
</mgrwt>
</event>
<event>
 4      1 +5.0558200e+02 2.53965000e+02 7.54677100e-03 1.11082400e-01
       21 -1    0    0  503  502 +0.0000000000e+00 +0.0000000000e+00 +9.7881035546e+02 9.7881035546e+02 0.0000000000e+00 0.0000e+00 1.0000e+00
       21 -1    0    0  501  503 -0.0000000000e+00 -0.0000000000e+00 -9.2978628003e+01 9.2978628003e+01 0.0000000000e+00 0.0000e+00 -1.0000e+00
        6  1    1    2  501    0 +1.7019438721e+02 -7.4853712085e+01 +7.3214713597e+02 7.7494363431e+02 1.7300000000e+02 0.0000e+00 1.0000e+00
       -6  1    1    2    0  502 -1.7019438721e+02 +7.4853712085e+01 +1.5368459148e+02 2.9684534915e+02 1.7300000000e+02 0.0000e+00 -1.0000e+00
<mgrwt>
<rscale>  2 0.25396497E+03</rscale>
<asrwt>0</asrwt>
<pdfrwt beam="1">  1       21 0.15058620E+00 0.25396497E+03</pdfrwt>
<pdfrwt beam="2">  1       21 0.14304405E-01 0.25396497E+03</pdfrwt>
<totfact> 0.12151375E+04</totfact>
</mgrwt>
</event>
<event>
 4      1 +5.0558200e+02 1.98287500e+02 7.54677100e-03 1.15119200e-01
       21 -1    0    0  503  502 +0.0000000000e+00 +0.0000000000e+00 +2.9303359836e+03 2.9303359836e+03 0.0000000000e+00 0.0000e+00 -1.0000e+00
       21 -1    0    0  501  503 -0.0000000000e+00 -0.0000000000e+00 -1.3667935042e+01 1.3667935042e+01 0.0000000000e+00 0.0000e+00 -1.0000e+00
        6  1    1    2  501    0 +7.2421537836e+01 +6.4374472372e+01 +1.6575639339e+03 1.6693819655e+03 1.7300000000e+02 0.0000e+00 -1.0000e+00
       -6  1    1    2    0  502 -7.2421537836e+01 -6.4374472372e+01 +1.2591041147e+03 1.2746219532e+03 1.7300000000e+02 0.0000e+00 -1.0000e+00
<mgrwt>
<rscale>  2 0.19828755E+03</rscale>
<asrwt>0</asrwt>
<pdfrwt beam="1">  1       21 0.45082042E+00 0.19828755E+03</pdfrwt>
<pdfrwt beam="2">  1       21 0.21027616E-02 0.19828755E+03</pdfrwt>
<totfact> 0.46243731E+03</totfact>
</mgrwt>
</event>
<event>
 4      1 +5.0558200e+02 1.74891900e+02 7.54677100e-03 1.17284000e-01
       21 -1    0    0  501  502 +0.0000000000e+00 +0.0000000000e+00 +3.7199342106e+02 3.7199342106e+02 0.0000000000e+00 0.0000e+00 1.0000e+00
       21 -1    0    0  502  503 -0.0000000000e+00 -0.0000000000e+00 -1.1300294194e+02 1.1300294194e+02 0.0000000000e+00 0.0000e+00 1.0000e+00
        6  1    1    2  501    0 -2.3215516356e+01 +1.0918381078e+01 +2.5605136427e+02 3.1007978391e+02 1.7300000000e+02 0.0000e+00 1.0000e+00
       -6  1    1    2    0  503 +2.3215516356e+01 -1.0918381078e+01 +2.9391148506e+00 1.7491657909e+02 1.7300000000e+02 0.0000e+00 1.0000e+00
<mgrwt>
<rscale>  2 0.17489188E+03</rscale>
<asrwt>0</asrwt>
<pdfrwt beam="1">  1       21 0.57229756E-01 0.17489188E+03</pdfrwt>
<pdfrwt beam="2">  1       21 0.17385068E-01 0.17489188E+03</pdfrwt>
<totfact> 0.86443813E+04</totfact>
</mgrwt>
</event>
<event>
 4      1 +5.0558200e+02 2.23385200e+02 7.54677100e-03 1.13138400e-01
       -1 -1    0    0    0  501 -0.0000000000e+00 +0.0000000000e+00 +7.7742879714e+01 7.7742879714e+01 0.0000000000e+00 0.0000e+00 1.0000e+00
        1 -1    0    0  502    0 +0.0000000000e+00 -0.0000000000e+00 -6.7407625283e+02 6.7407625283e+02 0.0000000000e+00 0.0000e+00 -1.0000e+00
        6  1    1    2  502    0 +7.9528950959e+01 -1.1682085107e+02 -3.8033162868e+02 4.4108175326e+02 1.7300000000e+02 0.0000e+00 -1.0000e+00
       -6  1    1    2    0  501 -7.9528950959e+01 +1.1682085107e+02 -2.1600174444e+02 3.1073737929e+02 1.7300000000e+02 0.0000e+00 1.0000e+00
<mgrwt>
<rscale>  2 0.22338524E+03</rscale>
<asrwt>0</asrwt>
<pdfrwt beam="1">  1        1 0.10370404E+00 0.22338524E+03</pdfrwt>
<pdfrwt beam="2">  1       -1 0.11960443E-01 0.22338524E+03</pdfrwt>
<totfact> 0.13704989E+03</totfact>
</mgrwt>
</event>
<event>
 4      1 +5.0558200e+02 1.92614300e+02 7.54677100e-03 1.15612400e-01
       21 -1    0    0  501  502 +0.0000000000e+00 +0.0000000000e+00 +9.7524518271e+01 9.7524518271e+01 0.0000000000e+00 0.0000e+00 1.0000e+00
       21 -1    0    0  502  503 -0.0000000000e+00 -0.0000000000e+00 -5.8134018620e+02 5.8134018620e+02 0.0000000000e+00 0.0000e+00 1.0000e+00
        6  1    1    2  501    0 +5.4370146653e+01 +6.4924205975e+01 -4.2358639666e+01 1.9721693569e+02 1.7300000000e+02 0.0000e+00 1.0000e+00
       -6  1    1    2    0  503 -5.4370146653e+01 -6.4924205975e+01 -4.4145702826e+02 4.8164776878e+02 1.7300000000e+02 0.0000e+00 1.0000e+00
<mgrwt>
<rscale>  2 0.19261429E+03</rscale>
<asrwt>0</asrwt>
<pdfrwt beam="1">  1       21 0.15003772E-01 0.19261429E+03</pdfrwt>
<pdfrwt beam="2">  1       21 0.89436953E-01 0.19261429E+03</pdfrwt>
<totfact> 0.41799353E+04</totfact>
</mgrwt>
</event>
<event>
 4      1 +5.0558200e+02 2.58881500e+02 7.54677100e-03 1.10781700e-01
       21 -1    0    0  503  502 +0.0000000000e+00 +0.0000000000e+00 +8.2188140795e+02 8.2188140795e+02 0.0000000000e+00 0.0000e+00 1.0000e+00
       21 -1    0    0  501  503 -0.0000000000e+00 -0.0000000000e+00 -9.0952924803e+01 9.0952924803e+01 0.0000000000e+00 0.0000e+00 1.0000e+00
        6  1    1    2  501    0 +7.3252547321e+01 -1.7811424989e+02 +2.1866623855e+02 3.3887246212e+02 1.7300000000e+02 0.0000e+00 1.0000e+00
       -6  1    1    2    0  502 -7.3252547321e+01 +1.7811424989e+02 +5.1226224459e+02 5.7396187063e+02 1.7300000000e+02 0.0000e+00 1.0000e+00
<mgrwt>
<rscale>  2 0.25888148E+03</rscale>
<asrwt>0</asrwt>
<pdfrwt beam="1">  1       21 0.12644329E+00 0.25888148E+03</pdfrwt>
<pdfrwt beam="2">  1       21 0.13992758E-01 0.25888148E+03</pdfrwt>
<totfact> 0.19857709E+04</totfact>
</mgrwt>
</event>
<event>
 4      1 +5.0558200e+02 1.91467600e+02 7.54677100e-03 1.15714400e-01
       21 -1    0    0  503  502 +0.0000000000e+00 +0.0000000000e+00 +1.8888545376e+02 1.8888545376e+02 0.0000000000e+00 0.0000e+00 1.0000e+00
       21 -1    0    0  501  503 -0.0000000000e+00 -0.0000000000e+00 -5.1683359531e+02 5.1683359531e+02 0.0000000000e+00 0.0000e+00 1.0000e+00
        6  1    1    2  501    0 +4.7422926801e+01 +6.6946941015e+01 -4.4281638583e+02 4.8243774568e+02 1.7300000000e+02 0.0000e+00 1.0000e+00
       -6  1    1    2    0  502 -4.7422926801e+01 -6.6946941015e+01 +1.1486824429e+02 2.2328130339e+02 1.7300000000e+02 0.0000e+00 1.0000e+00
<mgrwt>
<rscale>  2 0.19146756E+03</rscale>
<asrwt>0</asrwt>
<pdfrwt beam="1">  1       21 0.29059301E-01 0.19146756E+03</pdfrwt>
<pdfrwt beam="2">  1       21 0.79512860E-01 0.19146756E+03</pdfrwt>
<totfact> 0.15822295E+04</totfact>
</mgrwt>
</event>
<event>
 4      1 +5.0558200e+02 2.29650800e+02 7.54677100e-03 1.12688600e-01
       21 -1    0    0  501  502 +0.0000000000e+00 +0.0000000000e+00 +1.5741167365e+02 1.5741167365e+02 0.0000000000e+00 0.0000e+00 -1.0000e+00
       21 -1    0    0  502  503 -0.0000000000e+00 -0.0000000000e+00 -3.3767136935e+02 3.3767136935e+02 0.0000000000e+00 0.0000e+00 1.0000e+00
        6  1    1    2  501    0 -1.4382412247e+02 -4.6098920048e+01 -1.1197445404e+02 2.5549514083e+02 1.7300000000e+02 0.0000e+00 1.0000e+00
       -6  1    1    2    0  503 +1.4382412247e+02 +4.6098920048e+01 -6.8285241669e+01 2.3958790216e+02 1.7300000000e+02 0.0000e+00 -1.0000e+00
<mgrwt>
<rscale>  2 0.22965080E+03</rscale>
<asrwt>0</asrwt>
<pdfrwt beam="1">  1       21 0.24217181E-01 0.22965080E+03</pdfrwt>
<pdfrwt beam="2">  1       21 0.51949441E-01 0.22965080E+03</pdfrwt>
<totfact> 0.55668514E+04</totfact>
</mgrwt>
</event>
<event>
 4      1 +5.0558200e+02 1.92563600e+02 7.54677100e-03 1.15616900e-01
       21 -1    0    0  503  502 +0.0000000000e+00 +0.0000000000e+00 +1.0148538023e+03 1.0148538023e+03 0.0000000000e+00 0.0000e+00 -1.0000e+00
       21 -1    0    0  501  503 -0.0000000000e+00 -0.0000000000e+00 -8.8929522331e+01 8.8929522331e+01 0.0000000000e+00 0.0000e+00 -1.0000e+00
        6  1    1    2  501    0 -7.3553401171e+01 +4.1732996582e+01 +3.9356932576e+01 1.9654443256e+02 1.7300000000e+02 0.0000e+00 -1.0000e+00
       -6  1    1    2    0  502 +7.3553401171e+01 -4.1732996582e+01 +8.8656734739e+02 9.0723889207e+02 1.7300000000e+02 0.0000e+00 -1.0000e+00
<mgrwt>
<rscale>  2 0.19256362E+03</rscale>
<asrwt>0</asrwt>
<pdfrwt beam="1">  1       21 0.15613135E+00 0.19256362E+03</pdfrwt>
<pdfrwt beam="2">  1       21 0.13681466E-01 0.19256362E+03</pdfrwt>
<totfact> 0.12461664E+04</totfact>
</mgrwt>
</event>
<event>
 4      1 +5.0558200e+02 1.74420800e+02 7.54677100e-03 1.17331500e-01
        2 -1    0    0  502    0 +0.0000000000e+00 +0.0000000000e+00 +4.9961816850e+02 4.9961816850e+02 0.0000000000e+00 0.0000e+00 1.0000e+00
       -2 -1    0    0    0  501 -0.0000000000e+00 -0.0000000000e+00 -1.2856164572e+02 1.2856164572e+02 0.0000000000e+00 0.0000e+00 -1.0000e+00
        6  1    1    2  502    0 +2.1610355917e+01 +5.1577168559e+00 -4.2346443909e+01 1.7948768993e+02 1.7300000000e+02 0.0000e+00 -1.0000e+00
       -6  1    1    2    0  501 -2.1610355917e+01 -5.1577168559e+00 +4.1340296669e+02 4.4869212428e+02 1.7300000000e+02 0.0000e+00 1.0000e+00
<mgrwt>
<rscale>  2 0.17442078E+03</rscale>
<asrwt>0</asrwt>
<pdfrwt beam="1">  1        2 0.76864333E-01 0.17442078E+03</pdfrwt>
<pdfrwt beam="2">  1       -2 0.19778715E-01 0.17442078E+03</pdfrwt>
<totfact> 0.13275543E+03</totfact>
</mgrwt>
</event>
<event>
 4      1 +5.0558200e+02 1.78461700e+02 7.54677100e-03 1.16930000e-01
       21 -1    0    0  503  502 +0.0000000000e+00 +0.0000000000e+00 +7.5843824324e+02 7.5843824324e+02 0.0000000000e+00 0.0000e+00 1.0000e+00
       21 -1    0    0  501  503 -0.0000000000e+00 -0.0000000000e+00 -8.4155158313e+01 8.4155158313e+01 0.0000000000e+00 0.0000e+00 1.0000e+00
        6  1    1    2  501    0 +1.5969120525e+01 -4.0799133994e+01 +6.3534495013e+02 6.5993316919e+02 1.7300000000e+02 0.0000e+00 1.0000e+00
       -6  1    1    2    0  502 -1.5969120525e+01 +4.0799133994e+01 +3.8938134799e+01 1.8266023236e+02 1.7300000000e+02 0.0000e+00 1.0000e+00
<mgrwt>
<rscale>  2 0.17846171E+03</rscale>
<asrwt>0</asrwt>
<pdfrwt beam="1">  1       21 0.11668280E+00 0.17846171E+03</pdfrwt>
<pdfrwt beam="2">  1       21 0.12946948E-01 0.17846171E+03</pdfrwt>
<totfact> 0.29216737E+04</totfact>
</mgrwt>
</event>
<event>
 4      1 +5.0558200e+02 1.97122800e+02 7.54677100e-03 1.15218900e-01
       21 -1    0    0  501  502 +0.0000000000e+00 +0.0000000000e+00 +4.8744080826e+02 4.8744080826e+02 0.0000000000e+00 0.0000e+00 -1.0000e+00
       21 -1    0    0  502  503 -0.0000000000e+00 -0.0000000000e+00 -3.9013397566e+02 3.9013397566e+02 0.0000000000e+00 0.0000e+00 -1.0000e+00
        6  1    1    2  501    0 -6.2015692331e+01 +7.1291286173e+01 +4.4005256610e+02 4.8218632758e+02 1.7300000000e+02 0.0000e+00 -1.0000e+00
       -6  1    1    2    0  503 +6.2015692331e+01 -7.1291286173e+01 -3.4274573349e+02 3.9538845634e+02 1.7300000000e+02 0.0000e+00 -1.0000e+00
<mgrwt>
<rscale>  2 0.19712279E+03</rscale>
<asrwt>0</asrwt>
<pdfrwt beam="1">  1       21 0.74990894E-01 0.19712279E+03</pdfrwt>
<pdfrwt beam="2">  1       21 0.60020612E-01 0.19712279E+03</pdfrwt>
<totfact> 0.41030897E+03</totfact>
</mgrwt>
</event>
<event>
 4      1 +5.0558200e+02 1.85306300e+02 7.54677100e-03 1.16276400e-01
       21 -1    0    0  503  502 +0.0000000000e+00 +0.0000000000e+00 +1.6620104156e+03 1.6620104156e+03 0.0000000000e+00 0.0000e+00 1.0000e+00
       21 -1    0    0  501  503 -0.0000000000e+00 -0.0000000000e+00 -2.0788311348e+01 2.0788311348e+01 0.0000000000e+00 0.0000e+00 -1.0000e+00
        6  1    1    2  501    0 -6.3433113544e+01 -1.9638171586e+01 +8.8651558164e+02 9.0567560096e+02 1.7300000000e+02 0.0000e+00 -1.0000e+00
       -6  1    1    2    0  502 +6.3433113544e+01 +1.9638171586e+01 +7.5470652256e+02 7.7712312594e+02 1.7300000000e+02 0.0000e+00 1.0000e+00
<mgrwt>
<rscale>  2 0.18530628E+03</rscale>
<asrwt>0</asrwt>
<pdfrwt beam="1">  1       21 0.25569381E+00 0.18530628E+03</pdfrwt>
<pdfrwt beam="2">  1       21 0.31982031E-02 0.18530628E+03</pdfrwt>
<totfact> 0.35254499E+04</totfact>
</mgrwt>
</event>
<event>
 4      1 +5.0558200e+02 2.15482800e+02 7.54677100e-03 1.13729600e-01
       21 -1    0    0  501  502 +0.0000000000e+00 +0.0000000000e+00 +2.4671069571e+02 2.4671069571e+02 0.0000000000e+00 0.0000e+00 -1.0000e+00
       21 -1    0    0  502  503 -0.0000000000e+00 -0.0000000000e+00 -2.1113015872e+02 2.1113015872e+02 0.0000000000e+00 0.0000e+00 -1.0000e+00
        6  1    1    2  501    0 +1.2930578875e+01 -1.2781486793e+02 +9.3219638682e+01 2.3478232763e+02 1.7300000000e+02 0.0000e+00 -1.0000e+00
       -6  1    1    2    0  503 -1.2930578875e+01 +1.2781486793e+02 -5.7639101692e+01 2.2305852680e+02 1.7300000000e+02 0.0000e+00 -1.0000e+00
<mgrwt>
<rscale>  2 0.21548281E+03</rscale>
<asrwt>0</asrwt>
<pdfrwt beam="1">  1       21 0.37955492E-01 0.21548281E+03</pdfrwt>
<pdfrwt beam="2">  1       21 0.32481563E-01 0.21548281E+03</pdfrwt>
<totfact> 0.60425179E+04</totfact>
</mgrwt>
</event>
<event>
 4      1 +5.0558200e+02 1.85755700e+02 7.54677100e-03 1.16234600e-01
       21 -1    0    0  503  502 +0.0000000000e+00 +0.0000000000e+00 +1.3815748523e+02 1.3815748523e+02 0.0000000000e+00 0.0000e+00 1.0000e+00
       21 -1    0    0  501  503 -0.0000000000e+00 -0.0000000000e+00 -2.4979487662e+02 2.4979487662e+02 0.0000000000e+00 0.0000e+00 -1.0000e+00
        6  1    1    2  501    0 -5.9608270756e+01 -3.1984934850e+01 -5.8344190750e+01 1.9470291881e+02 1.7300000000e+02 0.0000e+00 -1.0000e+00
       -6  1    1    2    0  502 +5.9608270756e+01 +3.1984934850e+01 -5.3293200647e+01 1.9324944304e+02 1.7300000000e+02 0.0000e+00 -1.0000e+00
<mgrwt>
<rscale>  2 0.18575571E+03</rscale>
<asrwt>0</asrwt>
<pdfrwt beam="1">  1       21 0.21254998E-01 0.18575571E+03</pdfrwt>
<pdfrwt beam="2">  1       21 0.38429981E-01 0.18575571E+03</pdfrwt>
<totfact> 0.13479184E+05</totfact>
</mgrwt>
</event>
<event>
 4      1 +5.0558200e+02 1.95690600e+02 7.54677100e-03 1.15342700e-01
       21 -1    0    0  501  502 +0.0000000000e+00 +0.0000000000e+00 +1.4380251119e+02 1.4380251119e+02 0.0000000000e+00 0.0000e+00 1.0000e+00
       21 -1    0    0  502  503 -0.0000000000e+00 -0.0000000000e+00 -2.7065594345e+02 2.7065594345e+02 0.0000000000e+00 0.0000e+00 1.0000e+00
        6  1    1    2  501    0 +7.4789916571e+01 +5.2652336026e+01 -8.9712261107e+01 2.1527445251e+02 1.7300000000e+02 0.0000e+00 1.0000e+00
       -6  1    1    2    0  503 -7.4789916571e+01 -5.2652336026e+01 -3.7141171153e+01 1.9918400213e+02 1.7300000000e+02 0.0000e+00 1.0000e+00
<mgrwt>
<rscale>  2 0.19569057E+03</rscale>
<asrwt>0</asrwt>
<pdfrwt beam="1">  1       21 0.22123463E-01 0.19569057E+03</pdfrwt>
<pdfrwt beam="2">  1       21 0.41639376E-01 0.19569057E+03</pdfrwt>
<totfact> 0.10593664E+05</totfact>
</mgrwt>
</event>
<event>
 4      1 +5.0558200e+02 2.15186000e+02 7.54677100e-03 1.13752400e-01
       21 -1    0    0  503  502 +0.0000000000e+00 +0.0000000000e+00 +6.6526190688e+02 6.6526190688e+02 0.0000000000e+00 0.0000e+00 -1.0000e+00
       21 -1    0    0  501  503 -0.0000000000e+00 -0.0000000000e+00 -7.4931480109e+01 7.4931480109e+01 0.0000000000e+00 0.0000e+00 1.0000e+00
        6  1    1    2  501    0 +1.2770686447e+02 -8.1826326200e+00 +1.9648336103e+02 2.9139442320e+02 1.7300000000e+02 0.0000e+00 1.0000e+00
       -6  1    1    2    0  502 -1.2770686447e+02 +8.1826326200e+00 +3.9384706574e+02 4.4879896379e+02 1.7300000000e+02 0.0000e+00 -1.0000e+00
<mgrwt>
<rscale>  2 0.21518596E+03</rscale>
<asrwt>0</asrwt>
<pdfrwt beam="1">  1       21 0.10234798E+00 0.21518596E+03</pdfrwt>
<pdfrwt beam="2">  1       21 0.11527920E-01 0.21518596E+03</pdfrwt>
<totfact> 0.48413139E+04</totfact>
</mgrwt>
</event>
<event>
 4      1 +5.0558200e+02 1.88455600e+02 7.54677100e-03 1.15986200e-01
       21 -1    0    0  503  502 +0.0000000000e+00 +0.0000000000e+00 +5.2650188965e+01 5.2650188965e+01 0.0000000000e+00 0.0000e+00 -1.0000e+00
       21 -1    0    0  501  503 -0.0000000000e+00 -0.0000000000e+00 -1.5806500414e+03 1.5806500414e+03 0.0000000000e+00 0.0000e+00 -1.0000e+00
        6  1    1    2  501    0 +1.0498736583e+01 -7.4002010263e+01 -1.3823077042e+03 1.3950950183e+03 1.7300000000e+02 0.0000e+00 -1.0000e+00
       -6  1    1    2    0  502 -1.0498736583e+01 +7.4002010263e+01 -1.4569214821e+02 2.3820521204e+02 1.7300000000e+02 0.0000e+00 -1.0000e+00
<mgrwt>
<rscale>  2 0.18845562E+03</rscale>
<asrwt>0</asrwt>
<pdfrwt beam="1">  1       21 0.81000294E-02 0.18845562E+03</pdfrwt>
<pdfrwt beam="2">  1       21 0.24317692E+00 0.18845562E+03</pdfrwt>
<totfact> 0.86017865E+03</totfact>
</mgrwt>
</event>
<event>
 4      1 +5.0558200e+02 1.89404300e+02 7.54677100e-03 1.15900000e-01
       21 -1    0    0  503  502 +0.0000000000e+00 +0.0000000000e+00 +1.3309641420e+02 1.3309641420e+02 0.0000000000e+00 0.0000e+00 -1.0000e+00
       21 -1    0    0  501  503 -0.0000000000e+00 -0.0000000000e+00 -2.7310605120e+02 2.7310605120e+02 0.0000000000e+00 0.0000e+00 -1.0000e+00
        6  1    1    2  501    0 -7.0461817660e+01 +3.1306944842e+01 -4.6776744093e+01 1.9509499310e+02 1.7300000000e+02 0.0000e+00 -1.0000e+00
       -6  1    1    2    0  502 +7.0461817660e+01 -3.1306944842e+01 -9.3232892905e+01 2.1110747230e+02 1.7300000000e+02 0.0000e+00 -1.0000e+00
<mgrwt>
<rscale>  2 0.18940431E+03</rscale>
<asrwt>0</asrwt>
<pdfrwt beam="1">  1       21 0.20476372E-01 0.18940431E+03</pdfrwt>
<pdfrwt beam="2">  1       21 0.42016315E-01 0.18940431E+03</pdfrwt>
<totfact> 0.12056783E+05</totfact>
</mgrwt>
</event>
<event>
 4      1 +5.0558200e+02 2.33398700e+02 7.54677100e-03 1.12427000e-01
       -2 -1    0    0    0  501 -0.0000000000e+00 +0.0000000000e+00 +3.7661007477e+02 3.7661007477e+02 0.0000000000e+00 0.0000e+00 1.0000e+00
        2 -1    0    0  502    0 +0.0000000000e+00 -0.0000000000e+00 -1.6064065691e+02 1.6064065691e+02 0.0000000000e+00 0.0000e+00 -1.0000e+00
        6  1    1    2  502    0 -1.1172793311e+02 -1.0983095178e+02 +1.9274900196e+02 3.0269976340e+02 1.7300000000e+02 0.0000e+00 -1.0000e+00
       -6  1    1    2    0  501 +1.1172793311e+02 +1.0983095178e+02 +2.3220415900e+01 2.3455096828e+02 1.7300000000e+02 0.0000e+00 -1.0000e+00
<mgrwt>
<rscale>  2 0.23339873E+03</rscale>
<asrwt>0</asrwt>
<pdfrwt beam="1">  1        2 0.24713947E-01 0.23339873E+03</pdfrwt>
<pdfrwt beam="2">  1       -2 0.57940011E-01 0.23339873E+03</pdfrwt>
<totfact> 0.62009606E+02</totfact>
</mgrwt>
</event>
<event>
 4      1 +5.0558200e+02 1.92080900e+02 7.54677100e-03 1.15659800e-01
       21 -1    0    0  501  502 +0.0000000000e+00 +0.0000000000e+00 +9.9554042265e+02 9.9554042265e+02 0.0000000000e+00 0.0000e+00 1.0000e+00
       21 -1    0    0  502  503 -0.0000000000e+00 -0.0000000000e+00 -5.6933806417e+01 5.6933806417e+01 0.0000000000e+00 0.0000e+00 1.0000e+00
        6  1    1    2  501    0 -8.3095581399e+01 -7.8217104934e+00 +7.8021231689e+02 8.0350875181e+02 1.7300000000e+02 0.0000e+00 1.0000e+00
       -6  1    1    2    0  503 +8.3095581399e+01 +7.8217104934e+00 +1.5839429934e+02 2.4896547726e+02 1.7300000000e+02 0.0000e+00 1.0000e+00
<mgrwt>
<rscale>  2 0.19208085E+03</rscale>
<asrwt>0</asrwt>
<pdfrwt beam="1">  1       21 0.15316005E+00 0.19208085E+03</pdfrwt>
<pdfrwt beam="2">  1       21 0.87590479E-02 0.19208085E+03</pdfrwt>
<totfact> 0.28991367E+04</totfact>
</mgrwt>
</event>
<event>
 4      1 +5.0558200e+02 1.82159600e+02 7.54677100e-03 1.16572900e-01
        2 -1    0    0  502    0 +0.0000000000e+00 +0.0000000000e+00 +2.8800116335e+02 2.8800116335e+02 0.0000000000e+00 0.0000e+00 -1.0000e+00
       -2 -1    0    0    0  501 -0.0000000000e+00 -0.0000000000e+00 -1.1521570536e+02 1.1521570536e+02 0.0000000000e+00 0.0000e+00 1.0000e+00
        6  1    1    2  502    0 +3.2262083104e+01 -4.7034738382e+01 +8.5966145359e+01 2.0142563583e+02 1.7300000000e+02 0.0000e+00 1.0000e+00
       -6  1    1    2    0  501 -3.2262083104e+01 +4.7034738382e+01 +8.6819312628e+01 2.0179123288e+02 1.7300000000e+02 0.0000e+00 1.0000e+00
<mgrwt>
<rscale>  2 0.18215957E+03</rscale>
<asrwt>0</asrwt>
<pdfrwt beam="1">  1        2 0.44307871E-01 0.18215957E+03</pdfrwt>
<pdfrwt beam="2">  1       -2 0.17725493E-01 0.18215957E+03</pdfrwt>
<totfact> 0.28995436E+03</totfact>
</mgrwt>
</event>
<event>
 4      1 +5.0558200e+02 2.31072400e+02 7.54677100e-03 1.12588700e-01
       21 -1    0    0  501  502 +0.0000000000e+00 +0.0000000000e+00 +4.0003258614e+01 4.0003258614e+01 0.0000000000e+00 0.0000e+00 -1.0000e+00
       21 -1    0    0  502  503 -0.0000000000e+00 -0.0000000000e+00 -1.6614071313e+03 1.6614071313e+03 0.0000000000e+00 0.0000e+00 1.0000e+00
        6  1    1    2  501    0 -1.2627820060e+02 +8.6713617468e+01 -1.1879141039e+03 1.2101794717e+03 1.7300000000e+02 0.0000e+00 1.0000e+00
       -6  1    1    2    0  503 +1.2627820060e+02 -8.6713617468e+01 -4.3348976879e+02 4.9123091825e+02 1.7300000000e+02 0.0000e+00 -1.0000e+00
<mgrwt>
<rscale>  2 0.23107236E+03</rscale>
<asrwt>0</asrwt>
<pdfrwt beam="1">  1       21 0.61543475E-02 0.23107236E+03</pdfrwt>
<pdfrwt beam="2">  1       21 0.25560110E+00 0.23107236E+03</pdfrwt>
<totfact> 0.11245973E+04</totfact>
</mgrwt>
</event>
<event>
 4      1 +5.0558200e+02 3.44974800e+02 7.54677100e-03 1.06469700e-01
       -2 -1    0    0    0  501 -0.0000000000e+00 +0.0000000000e+00 +3.1381455261e+01 3.1381455261e+01 0.0000000000e+00 0.0000e+00 1.0000e+00
        2 -1    0    0  502    0 +0.0000000000e+00 -0.0000000000e+00 -3.8235725045e+03 3.8235725045e+03 0.0000000000e+00 0.0000e+00 -1.0000e+00
        6  1    1    2  502    0 -2.5613814534e+02 +1.5320524754e+02 -2.0704372032e+03 2.0989801833e+03 1.7300000000e+02 0.0000e+00 -1.0000e+00
       -6  1    1    2    0  501 +2.5613814534e+02 -1.5320524754e+02 -1.7217538461e+03 1.7559737765e+03 1.7300000000e+02 0.0000e+00 1.0000e+00
<mgrwt>
<rscale>  2 0.34497478E+03</rscale>
<asrwt>0</asrwt>
<pdfrwt beam="1">  1        2 0.58824161E+00 0.34497478E+03</pdfrwt>
<pdfrwt beam="2">  1       -2 0.48279187E-02 0.34497478E+03</pdfrwt>
<totfact> 0.12191776E+02</totfact>
</mgrwt>
</event>
<event>
 4      1 +5.0558200e+02 2.12127400e+02 7.54677100e-03 1.13989200e-01
       21 -1    0    0  501  502 +0.0000000000e+00 +0.0000000000e+00 +4.5527946591e+02 4.5527946591e+02 0.0000000000e+00 0.0000e+00 1.0000e+00
       21 -1    0    0  502  503 -0.0000000000e+00 -0.0000000000e+00 -1.6539644730e+02 1.6539644730e+02 0.0000000000e+00 0.0000e+00 1.0000e+00
        6  1    1    2  501    0 +6.8456108597e+00 -1.2256494738e+02 +3.4181159362e+02 4.0228496647e+02 1.7300000000e+02 0.0000e+00 1.0000e+00
       -6  1    1    2    0  503 -6.8456108597e+00 +1.2256494738e+02 -5.1928575013e+01 2.1839094674e+02 1.7300000000e+02 0.0000e+00 1.0000e+00
<mgrwt>
<rscale>  2 0.21212739E+03</rscale>
<asrwt>0</asrwt>
<pdfrwt beam="1">  1       21 0.70042994E-01 0.21212739E+03</pdfrwt>
<pdfrwt beam="2">  1       21 0.25445607E-01 0.21212739E+03</pdfrwt>
<totfact> 0.26802561E+04</totfact>
</mgrwt>
</event>
<event>
 4      1 +5.0558200e+02 1.89337200e+02 7.54677100e-03 1.15906000e-01
       21 -1    0    0  503  502 +0.0000000000e+00 +0.0000000000e+00 +1.8965059389e+02 1.8965059389e+02 0.0000000000e+00 0.0000e+00 -1.0000e+00
       21 -1    0    0  501  503 -0.0000000000e+00 -0.0000000000e+00 -2.0193454284e+02 2.0193454284e+02 0.0000000000e+00 0.0000e+00 -1.0000e+00
        6  1    1    2  501    0 -5.6011974935e+01 -5.2746956480e+01 -5.5647883250e+01 1.9734555902e+02 1.7300000000e+02 0.0000e+00 -1.0000e+00
       -6  1    1    2    0  502 +5.6011974935e+01 +5.2746956480e+01 +4.3363934303e+01 1.9423957772e+02 1.7300000000e+02 0.0000e+00 -1.0000e+00
<mgrwt>
<rscale>  2 0.18933722E+03</rscale>
<asrwt>0</asrwt>
<pdfrwt beam="1">  1       21 0.29177014E-01 0.18933722E+03</pdfrwt>
<pdfrwt beam="2">  1       21 0.31066853E-01 0.18933722E+03</pdfrwt>
<totfact> 0.11209876E+05</totfact>
</mgrwt>
</event>
<event>
 4      1 +5.0558200e+02 1.82285100e+02 7.54677100e-03 1.16561000e-01
       21 -1    0    0  503  502 +0.0000000000e+00 +0.0000000000e+00 +2.9207104868e+02 2.9207104868e+02 0.0000000000e+00 0.0000e+00 -1.0000e+00
       21 -1    0    0  501  503 -0.0000000000e+00 -0.0000000000e+00 -2.2138888250e+02 2.2138888250e+02 0.0000000000e+00 0.0000e+00 1.0000e+00
        6  1    1    2  501    0 -4.4622962754e+01 -3.6161278217e+01 -1.4365780507e+02 2.3208923242e+02 1.7300000000e+02 0.0000e+00 1.0000e+00
       -6  1    1    2    0  502 +4.4622962754e+01 +3.6161278217e+01 +2.1433997125e+02 2.8137069877e+02 1.7300000000e+02 0.0000e+00 -1.0000e+00
<mgrwt>
<rscale>  2 0.18228507E+03</rscale>
<asrwt>0</asrwt>
<pdfrwt beam="1">  1       21 0.44934008E-01 0.18228507E+03</pdfrwt>
<pdfrwt beam="2">  1       21 0.34059828E-01 0.18228507E+03</pdfrwt>
<totfact> 0.39681491E+04</totfact>
</mgrwt>
</event>
<event>
 4      1 +5.0558200e+02 1.90423800e+02 7.54677100e-03 1.15808000e-01
       21 -1    0    0  501  502 +0.0000000000e+00 +0.0000000000e+00 +7.2604228614e+01 7.2604228614e+01 0.0000000000e+00 0.0000e+00 1.0000e+00
       21 -1    0    0  502  503 -0.0000000000e+00 -0.0000000000e+00 -5.9093090390e+02 5.9093090390e+02 0.0000000000e+00 0.0000e+00 1.0000e+00
        6  1    1    2  501    0 +1.1499660566e+01 +7.8739948200e+01 -1.2861775110e+02 2.2979066024e+02 1.7300000000e+02 0.0000e+00 1.0000e+00
       -6  1    1    2    0  503 -1.1499660566e+01 -7.8739948200e+01 -3.8970892419e+02 4.3374447227e+02 1.7300000000e+02 0.0000e+00 1.0000e+00
<mgrwt>
<rscale>  2 0.19042379E+03</rscale>
<asrwt>0</asrwt>
<pdfrwt beam="1">  1       21 0.11169882E-01 0.19042379E+03</pdfrwt>
<pdfrwt beam="2">  1       21 0.90912445E-01 0.19042379E+03</pdfrwt>
<totfact> 0.68515256E+04</totfact>
</mgrwt>
</event>
<event>
 4      1 +5.0558200e+02 2.36680600e+02 7.54677100e-03 1.12202400e-01
       21 -1    0    0  501  502 +0.0000000000e+00 +0.0000000000e+00 +2.4226537816e+02 2.4226537816e+02 0.0000000000e+00 0.0000e+00 -1.0000e+00
       21 -1    0    0  502  503 -0.0000000000e+00 -0.0000000000e+00 -3.4108000255e+02 3.4108000255e+02 0.0000000000e+00 0.0000e+00 1.0000e+00
        6  1    1    2  501    0 -7.1350580833e+01 +1.4490619405e+02 +1.1612332507e+02 2.6363295903e+02 1.7300000000e+02 0.0000e+00 -1.0000e+00
       -6  1    1    2    0  503 +7.1350580833e+01 -1.4490619405e+02 -2.1493794946e+02 3.1971242168e+02 1.7300000000e+02 0.0000e+00 1.0000e+00
<mgrwt>
<rscale>  2 0.23668061E+03</rscale>
<asrwt>0</asrwt>
<pdfrwt beam="1">  1       21 0.37271597E-01 0.23668061E+03</pdfrwt>
<pdfrwt beam="2">  1       21 0.52473847E-01 0.23668061E+03</pdfrwt>
<totfact> 0.23345387E+04</totfact>
</mgrwt>
</event>
<event>
 4      1 +5.0558200e+02 2.03692300e+02 7.54677100e-03 1.14666100e-01
       21 -1    0    0  501  502 +0.0000000000e+00 +0.0000000000e+00 +2.4822726973e+03 2.4822726973e+03 0.0000000000e+00 0.0000e+00 1.0000e+00
       21 -1    0    0  502  503 -0.0000000000e+00 -0.0000000000e+00 -1.8295614489e+01 1.8295614489e+01 0.0000000000e+00 0.0000e+00 -1.0000e+00
        6  1    1    2  501    0 -7.5965700675e+01 +7.6097049311e+01 +1.5995107599e+03 1.6124283611e+03 1.7300000000e+02 0.0000e+00 1.0000e+00
       -6  1    1    2    0  503 +7.5965700675e+01 -7.6097049311e+01 +8.6446632293e+02 8.8813995072e+02 1.7300000000e+02 0.0000e+00 1.0000e+00
<mgrwt>
<rscale>  2 0.20369229E+03</rscale>
<asrwt>0</asrwt>
<pdfrwt beam="1">  1       21 0.38188784E+00 0.20369229E+03</pdfrwt>
<pdfrwt beam="2">  1       21 0.28147119E-02 0.20369229E+03</pdfrwt>
<totfact> 0.78098039E+03</totfact>
</mgrwt>
</event>
<event>
 4      1 +5.0558200e+02 2.35375800e+02 7.54677100e-03 1.12291200e-01
       21 -1    0    0  501  502 +0.0000000000e+00 +0.0000000000e+00 +1.3613899284e+02 1.3613899284e+02 0.0000000000e+00 0.0000e+00 1.0000e+00
       21 -1    0    0  502  503 -0.0000000000e+00 -0.0000000000e+00 -4.4801161602e+02 4.4801161602e+02 0.0000000000e+00 0.0000e+00 -1.0000e+00
        6  1    1    2  501    0 +5.4449571107e+01 -1.5002674669e+02 -2.4435977963e+02 3.3928377860e+02 1.7300000000e+02 0.0000e+00 -1.0000e+00
       -6  1    1    2    0  503 -5.4449571107e+01 +1.5002674669e+02 -6.7512843549e+01 2.4486683026e+02 1.7300000000e+02 0.0000e+00 1.0000e+00
<mgrwt>
<rscale>  2 0.23537583E+03</rscale>
<asrwt>0</asrwt>
<pdfrwt beam="1">  1       21 0.20944460E-01 0.23537583E+03</pdfrwt>
<pdfrwt beam="2">  1       21 0.68924865E-01 0.23537583E+03</pdfrwt>
<totfact> 0.39750131E+04</totfact>
</mgrwt>
</event>
<event>
 4      1 +5.0558200e+02 1.90695500e+02 7.54677100e-03 1.15783600e-01
       21 -1    0    0  503  502 +0.0000000000e+00 +0.0000000000e+00 +1.1761997134e+03 1.1761997134e+03 0.0000000000e+00 0.0000e+00 1.0000e+00
       21 -1    0    0  501  503 -0.0000000000e+00 -0.0000000000e+00 -8.0165077797e+01 8.0165077797e+01 0.0000000000e+00 0.0000e+00 1.0000e+00
        6  1    1    2  501    0 -6.2677812119e+01 -5.0072556312e+01 +5.5652474336e+01 1.9865036352e+02 1.7300000000e+02 0.0000e+00 1.0000e+00
       -6  1    1    2    0  502 +6.2677812119e+01 +5.0072556312e+01 +1.0403821612e+03 1.0577144276e+03 1.7300000000e+02 0.0000e+00 1.0000e+00
<mgrwt>
<rscale>  2 0.19069549E+03</rscale>
<asrwt>0</asrwt>
<pdfrwt beam="1">  1       21 0.18095379E+00 0.19069549E+03</pdfrwt>
<pdfrwt beam="2">  1       21 0.12333090E-01 0.19069549E+03</pdfrwt>
<totfact> 0.10032316E+04</totfact>
</mgrwt>
</event>
<event>
 4      1 +5.0558200e+02 2.21690100e+02 7.54677100e-03 1.13262900e-01
       21 -1    0    0  503  502 +0.0000000000e+00 +0.0000000000e+00 +1.1469657097e+02 1.1469657097e+02 0.0000000000e+00 0.0000e+00 1.0000e+00
       21 -1    0    0  501  503 -0.0000000000e+00 -0.0000000000e+00 -4.7747243282e+02 4.7747243282e+02 0.0000000000e+00 0.0000e+00 1.0000e+00
        6  1    1    2  501    0 +1.1686613235e+02 +7.4564261948e+01 -2.7621982391e+02 3.5418062224e+02 1.7300000000e+02 0.0000e+00 1.0000e+00
       -6  1    1    2    0  502 -1.1686613235e+02 -7.4564261948e+01 -8.6556037938e+01 2.3798838155e+02 1.7300000000e+02 0.0000e+00 1.0000e+00
<mgrwt>
<rscale>  2 0.22169015E+03</rscale>
<asrwt>0</asrwt>
<pdfrwt beam="1">  1       21 0.17645627E-01 0.22169015E+03</pdfrwt>
<pdfrwt beam="2">  1       21 0.73457296E-01 0.22169015E+03</pdfrwt>
<totfact> 0.47824512E+04</totfact>
</mgrwt>
</event>
<event>
 4      1 +5.0558200e+02 2.27655100e+02 7.54677100e-03 1.12830100e-01
       21 -1    0    0  503  502 +0.0000000000e+00 +0.0000000000e+00 +2.4771249242e+01 2.4771249242e+01 0.0000000000e+00 0.0000e+00 1.0000e+00
       21 -1    0    0  501  503 -0.0000000000e+00 -0.0000000000e+00 -2.1513327791e+03 2.1513327791e+03 0.0000000000e+00 0.0000e+00 1.0000e+00
        6  1    1    2  501    0 +1.4789680537e+02 -4.9397396123e+00 -8.8292001221e+02 9.1179746327e+02 1.7300000000e+02 0.0000e+00 1.0000e+00
       -6  1    1    2    0  502 -1.4789680537e+02 +4.9397396123e+00 -1.2436415177e+03 1.2643065651e+03 1.7300000000e+02 0.0000e+00 1.0000e+00
<mgrwt>
<rscale>  2 0.22765515E+03</rscale>
<asrwt>0</asrwt>
<pdfrwt beam="1">  1       21 0.38109604E-02 0.22765515E+03</pdfrwt>
<pdfrwt beam="2">  1       21 0.33097437E+00 0.22765515E+03</pdfrwt>
<totfact> 0.92482896E+03</totfact>
</mgrwt>
</event>
<event>
 4      1 +5.0558200e+02 1.86441000e+02 7.54677100e-03 1.16171100e-01
       21 -1    0    0  501  502 +0.0000000000e+00 +0.0000000000e+00 +1.3475157925e+02 1.3475157925e+02 0.0000000000e+00 0.0000e+00 1.0000e+00
       21 -1    0    0  502  503 -0.0000000000e+00 -0.0000000000e+00 -2.8560053851e+02 2.8560053851e+02 0.0000000000e+00 0.0000e+00 1.0000e+00
        6  1    1    2  501    0 +5.6692759955e+01 -4.0214327243e+01 -1.0037402953e+01 1.8671103504e+02 1.7300000000e+02 0.0000e+00 1.0000e+00
       -6  1    1    2    0  503 -5.6692759955e+01 +4.0214327243e+01 -1.4081155630e+02 2.3364108272e+02 1.7300000000e+02 0.0000e+00 1.0000e+00
<mgrwt>
<rscale>  2 0.18644104E+03</rscale>
<asrwt>0</asrwt>
<pdfrwt beam="1">  1       21 0.20731012E-01 0.18644104E+03</pdfrwt>
<pdfrwt beam="2">  1       21 0.43938545E-01 0.18644104E+03</pdfrwt>
<totfact> 0.10765147E+05</totfact>
</mgrwt>
</event>
<event>
 4      1 +5.0558200e+02 1.92052200e+02 7.54677100e-03 1.15662300e-01
       21 -1    0    0  503  502 +0.0000000000e+00 +0.0000000000e+00 +1.4072678447e+02 1.4072678447e+02 0.0000000000e+00 0.0000e+00 1.0000e+00
       21 -1    0    0  501  503 -0.0000000000e+00 -0.0000000000e+00 -2.7729562585e+02 2.7729562585e+02 0.0000000000e+00 0.0000e+00 1.0000e+00
        6  1    1    2  501    0 +6.4004589469e+01 -5.3464662704e+01 -1.9351484318e+01 1.9302470717e+02 1.7300000000e+02 0.0000e+00 1.0000e+00
       -6  1    1    2    0  502 -6.4004589469e+01 +5.3464662704e+01 -1.1721735706e+02 2.2499770316e+02 1.7300000000e+02 0.0000e+00 1.0000e+00
<mgrwt>
<rscale>  2 0.19205223E+03</rscale>
<asrwt>0</asrwt>
<pdfrwt beam="1">  1       21 0.21650275E-01 0.19205223E+03</pdfrwt>
<pdfrwt beam="2">  1       21 0.42660865E-01 0.19205223E+03</pdfrwt>
<totfact> 0.10518200E+05</totfact>
</mgrwt>
</event>
<event>
 4      1 +5.0558200e+02 1.76523100e+02 7.54677100e-03 1.17121100e-01
       21 -1    0    0  503  502 +0.0000000000e+00 +0.0000000000e+00 +6.5994427118e+02 6.5994427118e+02 0.0000000000e+00 0.0000e+00 -1.0000e+00
       21 -1    0    0  501  503 -0.0000000000e+00 -0.0000000000e+00 -4.8502017532e+01 4.8502017532e+01 0.0000000000e+00 0.0000e+00 -1.0000e+00
        6  1    1    2  501    0 +2.8749193009e+01 +2.0122160601e+01 +2.4805837124e+02 3.0445586377e+02 1.7300000000e+02 0.0000e+00 -1.0000e+00
       -6  1    1    2    0  502 -2.8749193009e+01 -2.0122160601e+01 +3.6338388241e+02 4.0399042494e+02 1.7300000000e+02 0.0000e+00 -1.0000e+00
<mgrwt>
<rscale>  2 0.17652314E+03</rscale>
<asrwt>0</asrwt>
<pdfrwt beam="1">  1       21 0.10152988E+00 0.17652314E+03</pdfrwt>
<pdfrwt beam="2">  1       21 0.74618494E-02 0.17652314E+03</pdfrwt>
<totfact> 0.10794203E+05</totfact>
</mgrwt>
</event>
<event>
 4      1 +5.0558200e+02 1.99681200e+02 7.54677100e-03 1.15000800e-01
       21 -1    0    0  503  502 +0.0000000000e+00 +0.0000000000e+00 +1.1643669169e+03 1.1643669169e+03 0.0000000000e+00 0.0000e+00 -1.0000e+00
       21 -1    0    0  501  503 -0.0000000000e+00 -0.0000000000e+00 -3.5209171882e+01 3.5209171882e+01 0.0000000000e+00 0.0000e+00 -1.0000e+00
        6  1    1    2  501    0 -9.1226218883e+01 -4.0266000865e+01 +4.6527331440e+02 5.0631198972e+02 1.7300000000e+02 0.0000e+00 -1.0000e+00
       -6  1    1    2    0  502 +9.1226218883e+01 +4.0266000865e+01 +6.6388443062e+02 6.9326409907e+02 1.7300000000e+02 0.0000e+00 -1.0000e+00
<mgrwt>
<rscale>  2 0.19968118E+03</rscale>
<asrwt>0</asrwt>
<pdfrwt beam="1">  1       21 0.17913334E+00 0.19968118E+03</pdfrwt>
<pdfrwt beam="2">  1       21 0.54167966E-02 0.19968118E+03</pdfrwt>
<totfact> 0.43113189E+04</totfact>
</mgrwt>
</event>
<event>
 4      1 +5.0558200e+02 1.89037600e+02 7.54677100e-03 1.15933200e-01
       21 -1    0    0  501  502 +0.0000000000e+00 +0.0000000000e+00 +3.9414389454e+01 3.9414389454e+01 0.0000000000e+00 0.0000e+00 -1.0000e+00
       21 -1    0    0  502  503 -0.0000000000e+00 -0.0000000000e+00 -1.3005795873e+03 1.3005795873e+03 0.0000000000e+00 0.0000e+00 -1.0000e+00
        6  1    1    2  501    0 -6.7862269955e+01 +3.4654122142e+01 -2.6184983305e+02 3.2295592723e+02 1.7300000000e+02 0.0000e+00 -1.0000e+00
       -6  1    1    2    0  503 +6.7862269955e+01 -3.4654122142e+01 -9.9931536481e+02 1.0170380495e+03 1.7300000000e+02 0.0000e+00 -1.0000e+00
<mgrwt>
<rscale>  2 0.18903755E+03</rscale>
<asrwt>0</asrwt>
<pdfrwt beam="1">  1       21 0.60637531E-02 0.18903755E+03</pdfrwt>
<pdfrwt beam="2">  1       21 0.20008914E+00 0.18903755E+03</pdfrwt>
<totfact> 0.26034650E+04</totfact>
</mgrwt>
</event>
<event>
 4      1 +5.0558200e+02 1.79508900e+02 7.54677100e-03 1.16827900e-01
       21 -1    0    0  503  502 +0.0000000000e+00 +0.0000000000e+00 +2.4215878159e+02 2.4215878159e+02 0.0000000000e+00 0.0000e+00 -1.0000e+00
       21 -1    0    0  501  503 -0.0000000000e+00 -0.0000000000e+00 -1.5861933271e+02 1.5861933271e+02 0.0000000000e+00 0.0000e+00 1.0000e+00
        6  1    1    2  501    0 -4.7829485592e+01 +2.6048625363e+00 -3.8658341530e+01 1.8362437848e+02 1.7300000000e+02 0.0000e+00 1.0000e+00
       -6  1    1    2    0  502 +4.7829485592e+01 -2.6048625363e+00 +1.2219779042e+02 2.1715373583e+02 1.7300000000e+02 0.0000e+00 -1.0000e+00
<mgrwt>
<rscale>  2 0.17950890E+03</rscale>
<asrwt>0</asrwt>
<pdfrwt beam="1">  1       21 0.37255197E-01 0.17950890E+03</pdfrwt>
<pdfrwt beam="2">  1       21 0.24402974E-01 0.17950890E+03</pdfrwt>
<totfact> 0.11074083E+05</totfact>
</mgrwt>
</event>
<event>
 4      1 +5.0558200e+02 2.13395200e+02 7.54677100e-03 1.13890500e-01
       21 -1    0    0  501  502 +0.0000000000e+00 +0.0000000000e+00 +1.6263477699e+02 1.6263477699e+02 0.0000000000e+00 0.0000e+00 -1.0000e+00
       21 -1    0    0  502  503 -0.0000000000e+00 -0.0000000000e+00 -5.4206636140e+02 5.4206636140e+02 0.0000000000e+00 0.0000e+00 -1.0000e+00
        6  1    1    2  501    0 -1.1478312727e+02 -4.9328927416e+01 -4.3470984984e+02 4.8426249383e+02 1.7300000000e+02 0.0000e+00 -1.0000e+00
       -6  1    1    2    0  503 +1.1478312727e+02 +4.9328927416e+01 +5.5278265437e+01 2.2043864456e+02 1.7300000000e+02 0.0000e+00 -1.0000e+00
<mgrwt>
<rscale>  2 0.21339520E+03</rscale>
<asrwt>0</asrwt>
<pdfrwt beam="1">  1       21 0.25020735E-01 0.21339520E+03</pdfrwt>
<pdfrwt beam="2">  1       21 0.83394824E-01 0.21339520E+03</pdfrwt>
<totfact> 0.18689990E+04</totfact>
</mgrwt>
</event>
<event>
 4      1 +5.0558200e+02 2.63949300e+02 7.54677100e-03 1.10479300e-01
       21 -1    0    0  501  502 +0.0000000000e+00 +0.0000000000e+00 +7.5291658774e+01 7.5291658774e+01 0.0000000000e+00 0.0000e+00 1.0000e+00
       21 -1    0    0  502  503 -0.0000000000e+00 -0.0000000000e+00 -1.0103280998e+03 1.0103280998e+03 0.0000000000e+00 0.0000e+00 -1.0000e+00
        6  1    1    2  501    0 -1.7850039557e+02 +8.8757076975e+01 -6.2496559014e+02 6.7841815924e+02 1.7300000000e+02 0.0000e+00 1.0000e+00
       -6  1    1    2    0  503 +1.7850039557e+02 -8.8757076975e+01 -3.1007085090e+02 4.0720159935e+02 1.7300000000e+02 0.0000e+00 1.0000e+00
<mgrwt>
<rscale>  2 0.26394926E+03</rscale>
<asrwt>0</asrwt>
<pdfrwt beam="1">  1       21 0.11583333E-01 0.26394926E+03</pdfrwt>
<pdfrwt beam="2">  1       21 0.15543508E+00 0.26394926E+03</pdfrwt>
<totfact> 0.16267734E+04</totfact>
</mgrwt>
</event>
<event>
 4      1 +5.0558200e+02 1.84185700e+02 7.54677100e-03 1.16381200e-01
       21 -1    0    0  501  502 +0.0000000000e+00 +0.0000000000e+00 +1.2052536172e+02 1.2052536172e+02 0.0000000000e+00 0.0000e+00 -1.0000e+00
       21 -1    0    0  502  503 -0.0000000000e+00 -0.0000000000e+00 -2.8368115222e+02 2.8368115222e+02 0.0000000000e+00 0.0000e+00 1.0000e+00
        6  1    1    2  501    0 +6.0783089448e+01 -1.7343184547e+01 -6.3738144205e+01 1.9490233718e+02 1.7300000000e+02 0.0000e+00 1.0000e+00
       -6  1    1    2    0  503 -6.0783089448e+01 +1.7343184547e+01 -9.9417646295e+01 2.0930417676e+02 1.7300000000e+02 0.0000e+00 1.0000e+00
<mgrwt>
<rscale>  2 0.18418569E+03</rscale>
<asrwt>0</asrwt>
<pdfrwt beam="1">  1       21 0.18542364E-01 0.18418569E+03</pdfrwt>
<pdfrwt beam="2">  1       21 0.43643253E-01 0.18418569E+03</pdfrwt>
<totfact> 0.13446192E+05</totfact>
</mgrwt>
</event>
<event>
 4      1 +5.0558200e+02 1.78481000e+02 7.54677100e-03 1.16928100e-01
       21 -1    0    0  501  502 +0.0000000000e+00 +0.0000000000e+00 +1.9225938012e+02 1.9225938012e+02 0.0000000000e+00 0.0000e+00 -1.0000e+00
       21 -1    0    0  502  503 -0.0000000000e+00 -0.0000000000e+00 -4.2424879314e+02 4.2424879314e+02 0.0000000000e+00 0.0000e+00 -1.0000e+00
        6  1    1    2  501    0 -1.5782844773e+01 +4.0955522717e+01 +1.2465104959e+02 2.1770010839e+02 1.7300000000e+02 0.0000e+00 -1.0000e+00
       -6  1    1    2    0  503 +1.5782844773e+01 -4.0955522717e+01 -3.5664046261e+02 3.9880806486e+02 1.7300000000e+02 0.0000e+00 -1.0000e+00
<mgrwt>
<rscale>  2 0.17848096E+03</rscale>
<asrwt>0</asrwt>
<pdfrwt beam="1">  1       21 0.29578366E-01 0.17848096E+03</pdfrwt>
<pdfrwt beam="2">  1       21 0.65269045E-01 0.17848096E+03</pdfrwt>
<totfact> 0.23854822E+04</totfact>
</mgrwt>
</event>
<event>
 4      1 +5.0558200e+02 1.73925500e+02 7.54677100e-03 1.17381500e-01
       21 -1    0    0  501  502 +0.0000000000e+00 +0.0000000000e+00 +2.9631956912e+02 2.9631956912e+02 0.0000000000e+00 0.0000e+00 -1.0000e+00
       21 -1    0    0  502  503 -0.0000000000e+00 -0.0000000000e+00 -1.2456648763e+02 1.2456648763e+02 0.0000000000e+00 0.0000e+00 -1.0000e+00
        6  1    1    2  501    0 +1.6141997938e+01 -7.7801543899e+00 +1.7527628907e+02 2.4692483150e+02 1.7300000000e+02 0.0000e+00 -1.0000e+00
       -6  1    1    2    0  503 -1.6141997938e+01 +7.7801543899e+00 -3.5232075767e+00 1.7396122525e+02 1.7300000000e+02 0.0000e+00 -1.0000e+00
<mgrwt>
<rscale>  2 0.17392554E+03</rscale>
<asrwt>0</asrwt>
<pdfrwt beam="1">  1       21 0.45587626E-01 0.17392554E+03</pdfrwt>
<pdfrwt beam="2">  1       21 0.19164075E-01 0.17392554E+03</pdfrwt>
<totfact> 0.11611226E+05</totfact>
</mgrwt>
</event>
<event>
 4      1 +5.0558200e+02 1.86819600e+02 7.54677100e-03 1.16136100e-01
       21 -1    0    0  503  502 +0.0000000000e+00 +0.0000000000e+00 +9.7342723140e+01 9.7342723140e+01 0.0000000000e+00 0.0000e+00 1.0000e+00
       21 -1    0    0  501  503 -0.0000000000e+00 -0.0000000000e+00 -4.5256436942e+02 4.5256436942e+02 0.0000000000e+00 0.0000e+00 1.0000e+00
        6  1    1    2  501    0 -5.9642823364e+01 +3.7620667066e+01 -3.0293410074e+02 3.5590820496e+02 1.7300000000e+02 0.0000e+00 1.0000e+00
       -6  1    1    2    0  502 +5.9642823364e+01 -3.7620667066e+01 -5.2287545539e+01 1.9399888759e+02 1.7300000000e+02 0.0000e+00 1.0000e+00
<mgrwt>
<rscale>  2 0.18681965E+03</rscale>
<asrwt>0</asrwt>
<pdfrwt beam="1">  1       21 0.14975803E-01 0.18681965E+03</pdfrwt>
<pdfrwt beam="2">  1       21 0.69625288E-01 0.18681965E+03</pdfrwt>
<totfact> 0.73951110E+04</totfact>
</mgrwt>
</event>
<event>
 4      1 +5.0558200e+02 3.21749200e+02 7.54677100e-03 1.07484700e-01
       21 -1    0    0  501  502 +0.0000000000e+00 +0.0000000000e+00 +8.6946095536e+02 8.6946095536e+02 0.0000000000e+00 0.0000e+00 1.0000e+00
       21 -1    0    0  502  503 -0.0000000000e+00 -0.0000000000e+00 -1.5069968755e+02 1.5069968755e+02 0.0000000000e+00 0.0000e+00 -1.0000e+00
        6  1    1    2  501    0 -2.6438042956e+02 -6.0799310980e+01 +5.9308272372e+02 6.7473675231e+02 1.7300000000e+02 0.0000e+00 1.0000e+00
       -6  1    1    2    0  503 +2.6438042956e+02 +6.0799310980e+01 +1.2567854409e+02 3.4542389059e+02 1.7300000000e+02 0.0000e+00 -1.0000e+00
<mgrwt>
<rscale>  2 0.32174923E+03</rscale>
<asrwt>0</asrwt>
<pdfrwt beam="1">  1       21 0.13376322E+00 0.32174923E+03</pdfrwt>
<pdfrwt beam="2">  1       21 0.23184568E-01 0.32174923E+03</pdfrwt>
<totfact> 0.64923025E+03</totfact>
</mgrwt>
</event>
<event>
 4      1 +5.0558200e+02 1.94123600e+02 7.54677100e-03 1.15479400e-01
       21 -1    0    0  503  502 +0.0000000000e+00 +0.0000000000e+00 +9.1821274588e+02 9.1821274588e+02 0.0000000000e+00 0.0000e+00 -1.0000e+00
       21 -1    0    0  501  503 -0.0000000000e+00 -0.0000000000e+00 -5.0790995714e+01 5.0790995714e+01 0.0000000000e+00 0.0000e+00 1.0000e+00
        6  1    1    2  501    0 +4.4217533629e+01 +7.6156357379e+01 +2.2142860446e+02 2.9447344180e+02 1.7300000000e+02 0.0000e+00 1.0000e+00
       -6  1    1    2    0  502 -4.4217533629e+01 -7.6156357379e+01 +6.4599314571e+02 6.7453029980e+02 1.7300000000e+02 0.0000e+00 -1.0000e+00
<mgrwt>
<rscale>  2 0.19412362E+03</rscale>
<asrwt>0</asrwt>
<pdfrwt beam="1">  1       21 0.14126349E+00 0.19412362E+03</pdfrwt>
<pdfrwt beam="2">  1       21 0.78140000E-02 0.19412362E+03</pdfrwt>
<totfact> 0.43670966E+04</totfact>
</mgrwt>
</event>
<event>
 4      1 +5.0558200e+02 2.67634400e+02 7.54677100e-03 1.10264100e-01
       21 -1    0    0  501  502 +0.0000000000e+00 +0.0000000000e+00 +3.7985567599e+02 3.7985567599e+02 0.0000000000e+00 0.0000e+00 1.0000e+00
       21 -1    0    0  502  503 -0.0000000000e+00 -0.0000000000e+00 -2.8565935049e+02 2.8565935049e+02 0.0000000000e+00 0.0000e+00 -1.0000e+00
        6  1    1    2  501    0 +4.7520108893e+01 -1.9859761649e+02 +2.4109585994e+02 3.6021575160e+02 1.7300000000e+02 0.0000e+00 -1.0000e+00
       -6  1    1    2    0  503 -4.7520108893e+01 +1.9859761649e+02 -1.4689953444e+02 3.0529927488e+02 1.7300000000e+02 0.0000e+00 1.0000e+00
<mgrwt>
<rscale>  2 0.26763440E+03</rscale>
<asrwt>0</asrwt>
<pdfrwt beam="1">  1       21 0.58439335E-01 0.26763440E+03</pdfrwt>
<pdfrwt beam="2">  1       21 0.43947593E-01 0.26763440E+03</pdfrwt>
<totfact> 0.13066375E+04</totfact>
</mgrwt>
</event>
<event>
 4      1 +5.0558200e+02 1.95591900e+02 7.54677100e-03 1.15351200e-01
       21 -1    0    0  503  502 +0.0000000000e+00 +0.0000000000e+00 +4.0326995884e+01 4.0326995884e+01 0.0000000000e+00 0.0000e+00 -1.0000e+00
       21 -1    0    0  501  503 -0.0000000000e+00 -0.0000000000e+00 -1.3862739022e+03 1.3862739022e+03 0.0000000000e+00 0.0000e+00 -1.0000e+00
        6  1    1    2  501    0 -2.6284010973e+01 -8.7386221865e+01 -1.0737465271e+03 1.0914155055e+03 1.7300000000e+02 0.0000e+00 -1.0000e+00
       -6  1    1    2    0  502 +2.6284010973e+01 +8.7386221865e+01 -2.7220037916e+02 3.3518539261e+02 1.7300000000e+02 0.0000e+00 -1.0000e+00
<mgrwt>
<rscale>  2 0.19559192E+03</rscale>
<asrwt>0</asrwt>
<pdfrwt beam="1">  1       21 0.62041534E-02 0.19559192E+03</pdfrwt>
<pdfrwt beam="2">  1       21 0.21327290E+00 0.19559192E+03</pdfrwt>
<totfact> 0.20564874E+04</totfact>
</mgrwt>
</event>
<event>
 4      1 +5.0558200e+02 2.18100500e+02 7.54677100e-03 1.13530700e-01
       21 -1    0    0  503  502 +0.0000000000e+00 +0.0000000000e+00 +1.0553800162e+03 1.0553800162e+03 0.0000000000e+00 0.0000e+00 -1.0000e+00
       21 -1    0    0  501  503 -0.0000000000e+00 -0.0000000000e+00 -5.2516957996e+01 5.2516957996e+01 0.0000000000e+00 0.0000e+00 -1.0000e+00
        6  1    1    2  501    0 +1.0723100868e+02 -7.8360391130e+01 +2.9285877375e+02 3.6514942350e+02 1.7300000000e+02 0.0000e+00 -1.0000e+00
       -6  1    1    2    0  502 -1.0723100868e+02 +7.8360391130e+01 +7.1000428446e+02 7.4274755070e+02 1.7300000000e+02 0.0000e+00 -1.0000e+00
<mgrwt>
<rscale>  2 0.21810053E+03</rscale>
<asrwt>0</asrwt>
<pdfrwt beam="1">  1       21 0.16236614E+00 0.21810053E+03</pdfrwt>
<pdfrwt beam="2">  1       21 0.80795328E-02 0.21810053E+03</pdfrwt>
<totfact> 0.28075275E+04</totfact>
</mgrwt>
</event>
<event>
 4      1 +5.0558200e+02 2.39747800e+02 7.54677100e-03 1.11996100e-01
       21 -1    0    0  503  502 +0.0000000000e+00 +0.0000000000e+00 +7.2525426509e+02 7.2525426509e+02 0.0000000000e+00 0.0000e+00 1.0000e+00
       21 -1    0    0  501  503 -0.0000000000e+00 -0.0000000000e+00 -7.9582140741e+01 7.9582140741e+01 0.0000000000e+00 0.0000e+00 -1.0000e+00
        6  1    1    2  501    0 +1.3403028621e+02 +9.7907658399e+01 +3.4869139018e+02 4.2316038659e+02 1.7300000000e+02 0.0000e+00 1.0000e+00
       -6  1    1    2    0  502 -1.3403028621e+02 -9.7907658399e+01 +2.9698073417e+02 3.8167601924e+02 1.7300000000e+02 0.0000e+00 -1.0000e+00
<mgrwt>
<rscale>  2 0.23974784E+03</rscale>
<asrwt>0</asrwt>
<pdfrwt beam="1">  1       21 0.11157758E+00 0.23974784E+03</pdfrwt>
<pdfrwt beam="2">  1       21 0.12243407E-01 0.23974784E+03</pdfrwt>
<totfact> 0.34844129E+04</totfact>
</mgrwt>
</event>
<event>
 4      1 +5.0558200e+02 3.59009600e+02 7.54677100e-03 1.05897700e-01
       21 -1    0    0  501  502 +0.0000000000e+00 +0.0000000000e+00 +8.9109739936e+02 8.9109739936e+02 0.0000000000e+00 0.0000e+00 1.0000e+00
       21 -1    0    0  502  503 -0.0000000000e+00 -0.0000000000e+00 -1.5736164789e+02 1.5736164789e+02 0.0000000000e+00 0.0000e+00 1.0000e+00
        6  1    1    2  501    0 -2.8537739977e+02 +1.3235799316e+02 +2.1781102711e+02 4.1991611327e+02 1.7300000000e+02 0.0000e+00 1.0000e+00
       -6  1    1    2    0  503 +2.8537739977e+02 -1.3235799316e+02 +5.1592472436e+02 6.2854293398e+02 1.7300000000e+02 0.0000e+00 1.0000e+00
<mgrwt>
<rscale>  2 0.35900961E+03</rscale>
<asrwt>0</asrwt>
<pdfrwt beam="1">  1       21 0.13709190E+00 0.35900961E+03</pdfrwt>
<pdfrwt beam="2">  1       21 0.24209485E-01 0.35900961E+03</pdfrwt>
<totfact> 0.55097778E+03</totfact>
</mgrwt>
</event>
<event>
 4      1 +5.0558200e+02 2.02844300e+02 7.54677100e-03 1.14736100e-01
       -2 -1    0    0    0  501 -0.0000000000e+00 +0.0000000000e+00 +3.0655912363e+01 3.0655912363e+01 0.0000000000e+00 0.0000e+00 1.0000e+00
        2 -1    0    0  502    0 +0.0000000000e+00 -0.0000000000e+00 -2.1895235680e+03 2.1895235680e+03 0.0000000000e+00 0.0000e+00 -1.0000e+00
        6  1    1    2  502    0 +7.9205428575e+01 -7.0308641836e+01 -1.7700116163e+03 1.7815967352e+03 1.7300000000e+02 0.0000e+00 -1.0000e+00
       -6  1    1    2    0  501 -7.9205428575e+01 +7.0308641836e+01 -3.8885603939e+02 4.3858274522e+02 1.7300000000e+02 0.0000e+00 1.0000e+00
<mgrwt>
<rscale>  2 0.20284429E+03</rscale>
<asrwt>0</asrwt>
<pdfrwt beam="1">  1        2 0.33684977E+00 0.20284429E+03</pdfrwt>
<pdfrwt beam="2">  1       -2 0.47162943E-02 0.20284429E+03</pdfrwt>
<totfact> 0.12732179E+03</totfact>
</mgrwt>
</event>
<event>
 4      1 +5.0558200e+02 1.82737700e+02 7.54677100e-03 1.16518000e-01
       -1 -1    0    0    0  501 -0.0000000000e+00 +0.0000000000e+00 +3.8775655493e+02 3.8775655493e+02 0.0000000000e+00 0.0000e+00 -1.0000e+00
        1 -1    0    0  502    0 +0.0000000000e+00 -0.0000000000e+00 -8.9469906384e+01 8.9469906384e+01 0.0000000000e+00 0.0000e+00 1.0000e+00
        6  1    1    2  502    0 +1.4650010113e+01 +5.7003760398e+01 +1.0296234667e+02 2.0974817360e+02 1.7300000000e+02 0.0000e+00 1.0000e+00
       -6  1    1    2    0  501 -1.4650010113e+01 -5.7003760398e+01 +1.9532430188e+02 2.6747828772e+02 1.7300000000e+02 0.0000e+00 -1.0000e+00
<mgrwt>
<rscale>  2 0.18273766E+03</rscale>
<asrwt>0</asrwt>
<pdfrwt beam="1">  1        1 0.13764601E-01 0.18273766E+03</pdfrwt>
<pdfrwt beam="2">  1       -1 0.59654854E-01 0.18273766E+03</pdfrwt>
<totfact> 0.12163039E+03</totfact>
</mgrwt>
</event>
<event>
 4      1 +5.0558200e+02 2.22628900e+02 7.54677100e-03 1.13193800e-01
       21 -1    0    0  503  502 +0.0000000000e+00 +0.0000000000e+00 +2.7250454897e+02 2.7250454897e+02 0.0000000000e+00 0.0000e+00 1.0000e+00
       21 -1    0    0  501  503 -0.0000000000e+00 -0.0000000000e+00 -1.8792825722e+02 1.8792825722e+02 0.0000000000e+00 0.0000e+00 1.0000e+00
        6  1    1    2  501    0 -2.0536171609e+01 +1.3861062099e+02 +8.3582243721e+01 2.3780166118e+02 1.7300000000e+02 0.0000e+00 1.0000e+00
       -6  1    1    2    0  502 +2.0536171609e+01 -1.3861062099e+02 +9.9404802547e-01 2.2263114500e+02 1.7300000000e+02 0.0000e+00 1.0000e+00
<mgrwt>
<rscale>  2 0.22262893E+03</rscale>
<asrwt>0</asrwt>
<pdfrwt beam="1">  1       21 0.41923777E-01 0.22262893E+03</pdfrwt>
<pdfrwt beam="2">  1       21 0.28912040E-01 0.22262893E+03</pdfrwt>
<totfact> 0.61872406E+04</totfact>
</mgrwt>
</event>
<event>
 4      1 +5.0558200e+02 1.83335300e+02 7.54677100e-03 1.16461400e-01
       21 -1    0    0  501  502 +0.0000000000e+00 +0.0000000000e+00 +4.4736210203e+01 4.4736210203e+01 0.0000000000e+00 0.0000e+00 1.0000e+00
       21 -1    0    0  502  503 -0.0000000000e+00 -0.0000000000e+00 -9.8725486194e+02 9.8725486194e+02 0.0000000000e+00 0.0000e+00 -1.0000e+00
        6  1    1    2  501    0 +4.7330411817e+01 +3.7982291407e+01 -2.1901886396e+02 2.8562402755e+02 1.7300000000e+02 0.0000e+00 1.0000e+00
       -6  1    1    2    0  503 -4.7330411817e+01 -3.7982291407e+01 -7.2349978778e+02 7.4636704460e+02 1.7300000000e+02 0.0000e+00 -1.0000e+00
<mgrwt>
<rscale>  2 0.18333527E+03</rscale>
<asrwt>0</asrwt>
<pdfrwt beam="1">  1       21 0.68824951E-02 0.18333527E+03</pdfrwt>
<pdfrwt beam="2">  1       21 0.15188534E+00 0.18333527E+03</pdfrwt>
<totfact> 0.45288015E+04</totfact>
</mgrwt>
</event>
<event>
 4      1 +5.0558200e+02 1.74238200e+02 7.54677100e-03 1.17349900e-01
       21 -1    0    0  503  502 +0.0000000000e+00 +0.0000000000e+00 +1.5013433239e+03 1.5013433239e+03 0.0000000000e+00 0.0000e+00 -1.0000e+00
       21 -1    0    0  501  503 -0.0000000000e+00 -0.0000000000e+00 -3.5178263578e+01 3.5178263578e+01 0.0000000000e+00 0.0000e+00 -1.0000e+00
        6  1    1    2  501    0 -1.5961638449e+01 +1.3235792524e+01 +2.3213219076e+02 2.9024871075e+02 1.7300000000e+02 0.0000e+00 -1.0000e+00
       -6  1    1    2    0  502 +1.5961638449e+01 -1.3235792524e+01 +1.2340328696e+03 1.2462728767e+03 1.7300000000e+02 0.0000e+00 -1.0000e+00
<mgrwt>
<rscale>  2 0.17423823E+03</rscale>
<asrwt>0</asrwt>
<pdfrwt beam="1">  1       21 0.23097585E+00 0.17423823E+03</pdfrwt>
<pdfrwt beam="2">  1       21 0.54120417E-02 0.17423823E+03</pdfrwt>
<totfact> 0.20607484E+04</totfact>
</mgrwt>
</event>
<event>
 4      1 +5.0558200e+02 2.16622500e+02 7.54677100e-03 1.13642600e-01
       21 -1    0    0  503  502 +0.0000000000e+00 +0.0000000000e+00 +1.3060634789e+02 1.3060634789e+02 0.0000000000e+00 0.0000e+00 1.0000e+00
       21 -1    0    0  501  503 -0.0000000000e+00 -0.0000000000e+00 -1.0208130203e+03 1.0208130203e+03 0.0000000000e+00 0.0000e+00 1.0000e+00
        6  1    1    2  501    0 +7.9002731582e+01 -1.0370574978e+02 -9.0855401227e+02 9.3402125637e+02 1.7300000000e+02 0.0000e+00 1.0000e+00
       -6  1    1    2    0  502 -7.9002731582e+01 +1.0370574978e+02 +1.8347339869e+01 2.1739811180e+02 1.7300000000e+02 0.0000e+00 1.0000e+00
<mgrwt>
<rscale>  2 0.21662252E+03</rscale>
<asrwt>0</asrwt>
<pdfrwt beam="1">  1       21 0.20093284E-01 0.21662252E+03</pdfrwt>
<pdfrwt beam="2">  1       21 0.15704816E+00 0.21662252E+03</pdfrwt>
<totfact> 0.59395891E+03</totfact>
</mgrwt>
</event>
<event>
 4      1 +5.0558200e+02 1.92636200e+02 7.54677100e-03 1.15610500e-01
       21 -1    0    0  503  502 +0.0000000000e+00 +0.0000000000e+00 +1.0938320982e+03 1.0938320982e+03 0.0000000000e+00 0.0000e+00 1.0000e+00
       21 -1    0    0  501  503 -0.0000000000e+00 -0.0000000000e+00 -4.9581245987e+01 4.9581245987e+01 0.0000000000e+00 0.0000e+00 -1.0000e+00
        6  1    1    2  501    0 -8.1991742995e+01 +2.1378953814e+01 +2.0086840090e+02 2.7831065389e+02 1.7300000000e+02 0.0000e+00 -1.0000e+00
       -6  1    1    2    0  502 +8.1991742995e+01 -2.1378953814e+01 +8.4338245129e+02 8.6510269028e+02 1.7300000000e+02 0.0000e+00 1.0000e+00
<mgrwt>
<rscale>  2 0.19263620E+03</rscale>
<asrwt>0</asrwt>
<pdfrwt beam="1">  1       21 0.16828184E+00 0.19263620E+03</pdfrwt>
<pdfrwt beam="2">  1       21 0.76278848E-02 0.19263620E+03</pdfrwt>
<totfact> 0.28604920E+04</totfact>
</mgrwt>
</event>
<event>
 4      1 +5.0558200e+02 1.83017400e+02 7.54677100e-03 1.16491400e-01
       21 -1    0    0  503  502 +0.0000000000e+00 +0.0000000000e+00 +7.0525434895e+02 7.0525434895e+02 0.0000000000e+00 0.0000e+00 -1.0000e+00
       21 -1    0    0  501  503 -0.0000000000e+00 -0.0000000000e+00 -5.5830736312e+01 5.5830736312e+01 0.0000000000e+00 0.0000e+00 -1.0000e+00
        6  1    1    2  501    0 +5.7039774938e+01 +1.7687040697e+01 +1.7766217768e+02 2.5506708277e+02 1.7300000000e+02 0.0000e+00 -1.0000e+00
       -6  1    1    2    0  502 -5.7039774938e+01 -1.7687040697e+01 +4.7176143496e+02 5.0601800250e+02 1.7300000000e+02 0.0000e+00 -1.0000e+00
<mgrwt>
<rscale>  2 0.18301740E+03</rscale>
<asrwt>0</asrwt>
<pdfrwt beam="1">  1       21 0.10850066E+00 0.18301740E+03</pdfrwt>
<pdfrwt beam="2">  1       21 0.85893446E-02 0.18301740E+03</pdfrwt>
<totfact> 0.71886726E+04</totfact>
</mgrwt>
</event>
<event>
 4      1 +5.0558200e+02 2.10198900e+02 7.54677100e-03 1.14140900e-01
       21 -1    0    0  501  502 +0.0000000000e+00 +0.0000000000e+00 +2.3240003281e+02 2.3240003281e+02 0.0000000000e+00 0.0000e+00 -1.0000e+00
       21 -1    0    0  502  503 -0.0000000000e+00 -0.0000000000e+00 -1.9803270278e+02 1.9803270278e+02 0.0000000000e+00 0.0000e+00 1.0000e+00
        6  1    1    2  501    0 -9.8314216586e+01 -6.7741406595e+01 +6.0207188474e+01 2.1865152388e+02 1.7300000000e+02 0.0000e+00 -1.0000e+00
       -6  1    1    2    0  503 +9.8314216586e+01 +6.7741406595e+01 -2.5839858445e+01 2.1178121171e+02 1.7300000000e+02 0.0000e+00 1.0000e+00
<mgrwt>
<rscale>  2 0.21019891E+03</rscale>
<asrwt>0</asrwt>
<pdfrwt beam="1">  1       21 0.35753851E-01 0.21019891E+03</pdfrwt>
<pdfrwt beam="2">  1       21 0.30466570E-01 0.21019891E+03</pdfrwt>
<totfact> 0.77410699E+04</totfact>
</mgrwt>
</event>
<event>
 4      1 +5.0558200e+02 1.90227600e+02 7.54677100e-03 1.15825600e-01
       -2 -1    0    0    0  501 -0.0000000000e+00 +0.0000000000e+00 +6.3511364393e+01 6.3511364393e+01 0.0000000000e+00 0.0000e+00 -1.0000e+00
        2 -1    0    0  502    0 +0.0000000000e+00 -0.0000000000e+00 -8.2484400894e+02 8.2484400894e+02 0.0000000000e+00 0.0000e+00 1.0000e+00
        6  1    1    2  502    0 -7.9074742647e+01 +2.1776476470e+00 -1.3365996819e+02 2.3248987972e+02 1.7300000000e+02 0.0000e+00 -1.0000e+00
       -6  1    1    2    0  501 +7.9074742647e+01 -2.1776476470e+00 -6.2767267636e+02 6.5586549362e+02 1.7300000000e+02 0.0000e+00 1.0000e+00
<mgrwt>
<rscale>  2 0.19022765E+03</rscale>
<asrwt>0</asrwt>
<pdfrwt beam="1">  1        2 0.12689907E+00 0.19022765E+03</pdfrwt>
<pdfrwt beam="2">  1       -2 0.97709798E-02 0.19022765E+03</pdfrwt>
<totfact> 0.23319275E+03</totfact>
</mgrwt>
</event>
<event>
 4      1 +5.0558200e+02 2.07334000e+02 7.54677100e-03 1.14369500e-01
       21 -1    0    0  501  502 +0.0000000000e+00 +0.0000000000e+00 +1.2337333532e+02 1.2337333532e+02 0.0000000000e+00 0.0000e+00 -1.0000e+00
       21 -1    0    0  502  503 -0.0000000000e+00 -0.0000000000e+00 -3.5092026214e+02 3.5092026214e+02 0.0000000000e+00 0.0000e+00 -1.0000e+00
        6  1    1    2  501    0 -1.0069862413e+02 -5.4019961125e+01 -9.3809159174e+01 2.2756873126e+02 1.7300000000e+02 0.0000e+00 1.0000e+00
       -6  1    1    2    0  503 +1.0069862413e+02 +5.4019961125e+01 -1.3373776765e+02 2.4672486619e+02 1.7300000000e+02 0.0000e+00 1.0000e+00
<mgrwt>
<rscale>  2 0.20733396E+03</rscale>
<asrwt>0</asrwt>
<pdfrwt beam="1">  1       21 0.18980513E-01 0.20733396E+03</pdfrwt>
<pdfrwt beam="2">  1       21 0.53987732E-01 0.20733396E+03</pdfrwt>
<totfact> 0.82032670E+04</totfact>
</mgrwt>
</event>
<event>
 4      1 +5.0558200e+02 1.97664300e+02 7.54677100e-03 1.15172500e-01
       21 -1    0    0  501  502 +0.0000000000e+00 +0.0000000000e+00 +4.2671030192e+02 4.2671030192e+02 0.0000000000e+00 0.0000e+00 1.0000e+00
       21 -1    0    0  502  503 -0.0000000000e+00 -0.0000000000e+00 -2.6394077388e+02 2.6394077388e+02 0.0000000000e+00 0.0000e+00 1.0000e+00
        6  1    1    2  501    0 -9.5579973853e+01 +2.5808888800e+00 +3.6045604904e+02 4.1109579866e+02 1.7300000000e+02 0.0000e+00 1.0000e+00
       -6  1    1    2    0  503 +9.5579973853e+01 -2.5808888800e+00 -1.9768652100e+02 2.7955527713e+02 1.7300000000e+02 0.0000e+00 1.0000e+00
<mgrwt>
<rscale>  2 0.19766434E+03</rscale>
<asrwt>0</asrwt>
<pdfrwt beam="1">  1       21 0.65647739E-01 0.19766434E+03</pdfrwt>
<pdfrwt beam="2">  1       21 0.40606273E-01 0.19766434E+03</pdfrwt>
<totfact> 0.12421352E+04</totfact>
</mgrwt>
</event>
<event>
 4      1 +5.0558200e+02 3.32449600e+02 7.54677100e-03 1.07005800e-01
        1 -1    0    0  502    0 +0.0000000000e+00 +0.0000000000e+00 +6.9150784882e+02 6.9150784882e+02 0.0000000000e+00 0.0000e+00 -1.0000e+00
       -1 -1    0    0    0  501 -0.0000000000e+00 -0.0000000000e+00 -1.5983055740e+02 1.5983055740e+02 0.0000000000e+00 0.0000e+00 1.0000e+00
        6  1    1    2  502    0 +2.8378932732e+02 -7.5729989251e+00 +2.6434969073e+02 4.2473932194e+02 1.7300000000e+02 0.0000e+00 -1.0000e+00
       -6  1    1    2    0  501 -2.8378932732e+02 +7.5729989251e+00 +2.6732760069e+02 4.2659908428e+02 1.7300000000e+02 0.0000e+00 -1.0000e+00
<mgrwt>
<rscale>  2 0.33244959E+03</rscale>
<asrwt>0</asrwt>
<pdfrwt beam="1">  1        1 0.10638582E+00 0.33244959E+03</pdfrwt>
<pdfrwt beam="2">  1       -1 0.24589317E-01 0.33244959E+03</pdfrwt>
<totfact> 0.41160794E+02</totfact>
</mgrwt>
</event>
<event>
 4      1 +5.0558200e+02 2.07114300e+02 7.54677100e-03 1.14387200e-01
       21 -1    0    0  501  502 +0.0000000000e+00 +0.0000000000e+00 +2.2828811749e+02 2.2828811749e+02 0.0000000000e+00 0.0000e+00 1.0000e+00
       21 -1    0    0  502  503 -0.0000000000e+00 -0.0000000000e+00 -3.6322935826e+02 3.6322935826e+02 0.0000000000e+00 0.0000e+00 1.0000e+00
        6  1    1    2  501    0 +6.8118810126e+01 -9.1253358924e+01 +1.3800909322e+02 2.4888322085e+02 1.7300000000e+02 0.0000e+00 1.0000e+00
       -6  1    1    2    0  503 -6.8118810126e+01 +9.1253358924e+01 -2.7295033399e+02 3.4263425491e+02 1.7300000000e+02 0.0000e+00 1.0000e+00
<mgrwt>
<rscale>  2 0.20711434E+03</rscale>
<asrwt>0</asrwt>
<pdfrwt beam="1">  1       21 0.35121249E-01 0.20711434E+03</pdfrwt>
<pdfrwt beam="2">  1       21 0.55881440E-01 0.20711434E+03</pdfrwt>
<totfact> 0.23374157E+04</totfact>
</mgrwt>
</event>
<event>
 4      1 +5.0558200e+02 1.78288500e+02 7.54677100e-03 1.16947000e-01
       21 -1    0    0  501  502 +0.0000000000e+00 +0.0000000000e+00 +1.2127221605e+02 1.2127221605e+02 0.0000000000e+00 0.0000e+00 1.0000e+00
       21 -1    0    0  502  503 -0.0000000000e+00 -0.0000000000e+00 -2.6649655738e+02 2.6649655738e+02 0.0000000000e+00 0.0000e+00 1.0000e+00
        6  1    1    2  501    0 -3.3319199985e+01 -2.7342569392e+01 -9.7484018941e+01 2.0319921047e+02 1.7300000000e+02 0.0000e+00 1.0000e+00
       -6  1    1    2    0  503 +3.3319199985e+01 +2.7342569392e+01 -4.7740322392e+01 1.8456956296e+02 1.7300000000e+02 0.0000e+00 1.0000e+00
<mgrwt>
<rscale>  2 0.17828849E+03</rscale>
<asrwt>0</asrwt>
<pdfrwt beam="1">  1       21 0.18657264E-01 0.17828849E+03</pdfrwt>
<pdfrwt beam="2">  1       21 0.40999470E-01 0.17828849E+03</pdfrwt>
<totfact> 0.15123576E+05</totfact>
</mgrwt>
</event>
<event>
 4      1 +5.0558200e+02 2.45773600e+02 7.54677100e-03 1.11600500e-01
       21 -1    0    0  503  502 +0.0000000000e+00 +0.0000000000e+00 +1.3355644466e+02 1.3355644466e+02 0.0000000000e+00 0.0000e+00 1.0000e+00
       21 -1    0    0  501  503 -0.0000000000e+00 -0.0000000000e+00 -5.1418715342e+02 5.1418715342e+02 0.0000000000e+00 0.0000e+00 1.0000e+00
        6  1    1    2  501    0 +6.0087862236e+01 -1.6390580571e+02 -3.0269544045e+02 3.8990921252e+02 1.7300000000e+02 0.0000e+00 1.0000e+00
       -6  1    1    2    0  502 -6.0087862236e+01 +1.6390580571e+02 -7.7935268308e+01 2.5783438557e+02 1.7300000000e+02 0.0000e+00 1.0000e+00
<mgrwt>
<rscale>  2 0.24577360E+03</rscale>
<asrwt>0</asrwt>
<pdfrwt beam="1">  1       21 0.20547146E-01 0.24577360E+03</pdfrwt>
<pdfrwt beam="2">  1       21 0.79105715E-01 0.24577360E+03</pdfrwt>
<totfact> 0.30128118E+04</totfact>
</mgrwt>
</event>
<event>
 4      1 +5.0558200e+02 2.91036600e+02 7.54677100e-03 1.08980900e-01
       21 -1    0    0  501  502 +0.0000000000e+00 +0.0000000000e+00 +8.5949825124e+01 8.5949825124e+01 0.0000000000e+00 0.0000e+00 1.0000e+00
       21 -1    0    0  502  503 -0.0000000000e+00 -0.0000000000e+00 -9.9599342485e+02 9.9599342485e+02 0.0000000000e+00 0.0000e+00 1.0000e+00
        6  1    1    2  501    0 -2.3403349380e+02 -1.2672936781e+00 -3.9945562104e+02 4.9423382668e+02 1.7300000000e+02 0.0000e+00 1.0000e+00
       -6  1    1    2    0  503 +2.3403349380e+02 +1.2672936781e+00 -5.1058797869e+02 5.8770942330e+02 1.7300000000e+02 0.0000e+00 1.0000e+00
<mgrwt>
<rscale>  2 0.29103657E+03</rscale>
<asrwt>0</asrwt>
<pdfrwt beam="1">  1       21 0.13223051E-01 0.29103657E+03</pdfrwt>
<pdfrwt beam="2">  1       21 0.15322975E+00 0.29103657E+03</pdfrwt>
<totfact> 0.13122775E+04</totfact>
</mgrwt>
</event>
<event>
 4      1 +5.0558200e+02 1.84460500e+02 7.54677100e-03 1.16355500e-01
       21 -1    0    0  501  502 +0.0000000000e+00 +0.0000000000e+00 +7.2108648744e+02 7.2108648744e+02 0.0000000000e+00 0.0000e+00 1.0000e+00
       21 -1    0    0  502  503 -0.0000000000e+00 -0.0000000000e+00 -5.4439161403e+01 5.4439161403e+01 0.0000000000e+00 0.0000e+00 -1.0000e+00
        6  1    1    2  501    0 +5.5281715388e+01 -3.2258179500e+01 +4.7485563676e+02 5.0942470883e+02 1.7300000000e+02 0.0000e+00 1.0000e+00
       -6  1    1    2    0  503 -5.5281715388e+01 +3.2258179500e+01 +1.9179168927e+02 2.6610094001e+02 1.7300000000e+02 0.0000e+00 -1.0000e+00
<mgrwt>
<rscale>  2 0.18446045E+03</rscale>
<asrwt>0</asrwt>
<pdfrwt beam="1">  1       21 0.11093638E+00 0.18446045E+03</pdfrwt>
<pdfrwt beam="2">  1       21 0.83752561E-02 0.18446045E+03</pdfrwt>
<totfact> 0.71153977E+04</totfact>
</mgrwt>
</event>
<event>
 4      1 +5.0558200e+02 2.74921100e+02 7.54677100e-03 1.09849600e-01
       21 -1    0    0  501  502 +0.0000000000e+00 +0.0000000000e+00 +1.6287980103e+03 1.6287980103e+03 0.0000000000e+00 0.0000e+00 1.0000e+00
       21 -1    0    0  502  503 -0.0000000000e+00 -0.0000000000e+00 -8.4630836182e+01 8.4630836182e+01 0.0000000000e+00 0.0000e+00 1.0000e+00
        6  1    1    2  501    0 +1.1774129139e+01 -2.1334004519e+02 +1.9629916784e+02 3.3780907077e+02 1.7300000000e+02 0.0000e+00 1.0000e+00
       -6  1    1    2    0  503 -1.1774129139e+01 +2.1334004519e+02 +1.3478680063e+03 1.3756197757e+03 1.7300000000e+02 0.0000e+00 1.0000e+00
<mgrwt>
<rscale>  2 0.27492109E+03</rscale>
<asrwt>0</asrwt>
<pdfrwt beam="1">  1       21 0.25058429E+00 0.27492109E+03</pdfrwt>
<pdfrwt beam="2">  1       21 0.13020130E-01 0.27492109E+03</pdfrwt>
<totfact> 0.30996254E+03</totfact>
</mgrwt>
</event>
<event>
 4      1 +5.0558200e+02 1.99227300e+02 7.54677100e-03 1.15039300e-01
       21 -1    0    0  501  502 +0.0000000000e+00 +0.0000000000e+00 +2.3296870622e+02 2.3296870622e+02 0.0000000000e+00 0.0000e+00 1.0000e+00
       21 -1    0    0  502  503 -0.0000000000e+00 -0.0000000000e+00 -1.9571867306e+02 1.9571867306e+02 0.0000000000e+00 0.0000e+00 1.0000e+00
        6  1    1    2  501    0 -8.8423371766e+01 +4.4088797213e+01 +9.5759538106e+01 2.2104615774e+02 1.7300000000e+02 0.0000e+00 1.0000e+00
       -6  1    1    2    0  503 +8.8423371766e+01 -4.4088797213e+01 -5.8509504947e+01 2.0764122154e+02 1.7300000000e+02 0.0000e+00 1.0000e+00
<mgrwt>
<rscale>  2 0.19922729E+03</rscale>
<asrwt>0</asrwt>
<pdfrwt beam="1">  1       21 0.35841339E-01 0.19922729E+03</pdfrwt>
<pdfrwt beam="2">  1       21 0.30110565E-01 0.19922729E+03</pdfrwt>
<totfact> 0.79194373E+04</totfact>
</mgrwt>
</event>
<event>
 4      1 +5.0558200e+02 1.73439100e+02 7.54677100e-03 1.17430800e-01
       21 -1    0    0  501  502 +0.0000000000e+00 +0.0000000000e+00 +1.1672291316e+02 1.1672291316e+02 0.0000000000e+00 0.0000e+00 1.0000e+00
       21 -1    0    0  502  503 -0.0000000000e+00 -0.0000000000e+00 -3.3255356396e+02 3.3255356396e+02 0.0000000000e+00 0.0000e+00 1.0000e+00
        6  1    1    2  501    0 +1.7687068822e+00 -1.2205803388e+01 -1.3492491492e+00 1.7344431508e+02 1.7300000000e+02 0.0000e+00 1.0000e+00
       -6  1    1    2    0  503 -1.7687068822e+00 +1.2205803388e+01 -2.1448140166e+02 2.7583216204e+02 1.7300000000e+02 0.0000e+00 1.0000e+00
<mgrwt>
<rscale>  2 0.17343907E+03</rscale>
<asrwt>0</asrwt>
<pdfrwt beam="1">  1       21 0.17957371E-01 0.17343907E+03</pdfrwt>
<pdfrwt beam="2">  1       21 0.51162086E-01 0.17343907E+03</pdfrwt>
<totfact> 0.10316656E+05</totfact>
</mgrwt>
</event>
<event>
 4      1 +5.0558200e+02 1.95160200e+02 7.54677100e-03 1.15388800e-01
       21 -1    0    0  503  502 +0.0000000000e+00 +0.0000000000e+00 +2.4636968603e+02 2.4636968603e+02 0.0000000000e+00 0.0000e+00 -1.0000e+00
       21 -1    0    0  501  503 -0.0000000000e+00 -0.0000000000e+00 -1.9809472913e+02 1.9809472913e+02 0.0000000000e+00 0.0000e+00 -1.0000e+00
        6  1    1    2  501    0 -8.9181961155e+01 -1.4320091624e+01 -8.0001787845e+01 2.1092124900e+02 1.7300000000e+02 0.0000e+00 -1.0000e+00
       -6  1    1    2    0  502 +8.9181961155e+01 +1.4320091624e+01 +1.2827674475e+02 2.3354316616e+02 1.7300000000e+02 0.0000e+00 -1.0000e+00
<mgrwt>
<rscale>  2 0.19516016E+03</rscale>
<asrwt>0</asrwt>
<pdfrwt beam="1">  1       21 0.37903028E-01 0.19516016E+03</pdfrwt>
<pdfrwt beam="2">  1       21 0.30476112E-01 0.19516016E+03</pdfrwt>
<totfact> 0.69295646E+04</totfact>
</mgrwt>
</event>
<event>
 4      1 +5.0558200e+02 2.77762300e+02 7.54677100e-03 1.09691700e-01
       -2 -1    0    0    0  501 -0.0000000000e+00 +0.0000000000e+00 +8.2473562996e+01 8.2473562996e+01 0.0000000000e+00 0.0000e+00 -1.0000e+00
        2 -1    0    0  502    0 +0.0000000000e+00 -0.0000000000e+00 -9.6035644476e+02 9.6035644476e+02 0.0000000000e+00 0.0000e+00 1.0000e+00
        6  1    1    2  502    0 +1.6630813601e+02 +1.3987321866e+02 -3.5501290680e+02 4.5076166363e+02 1.7300000000e+02 0.0000e+00 -1.0000e+00
       -6  1    1    2    0  501 -1.6630813601e+02 -1.3987321866e+02 -5.2286997497e+02 5.9206834413e+02 1.7300000000e+02 0.0000e+00 1.0000e+00
<mgrwt>
<rscale>  2 0.27776233E+03</rscale>
<asrwt>0</asrwt>
<pdfrwt beam="1">  1        2 0.14774715E+00 0.27776233E+03</pdfrwt>
<pdfrwt beam="2">  1       -2 0.12688240E-01 0.27776233E+03</pdfrwt>
<totfact> 0.12554410E+03</totfact>
</mgrwt>
</event>
</LesHouchesEvents>
